ITEM: TIMESTEP
0
ITEM: NUMBER OF ATOMS
915
ITEM: BOX BOUNDS pp pp pp
0.0000000000000000e+00 1.6869000000000000e+01
0.0000000000000000e+00 1.4609000000000000e+01
0.0000000000000000e+00 4.1478000000000002e+01
ITEM: ATOMS id element xu yu zu fx fy fz q
1 Pt           1.40569997           0.81160003          35.73899841 -4.17372449765978e-05 -0.00102515533740303 -0.000456417044482905 -0.00461564628197757
2 Pt            4.2171998           0.81160003          35.73899841 0.000276462991675366 -0.000421047263570974 1.45799689860983e-05 -0.00150532381914441
3 Pt           7.02859974           0.81160003          35.73899841 -0.000608799149987572 -0.000324714297666478 -0.000109772235480949 -0.00498499591859468
4 Pt           9.84009933           0.81160003          35.73899841 -0.000211597421317276  0.00096615619452678 -0.000802827064125407 -0.00727823971689735
5 Pt          12.65159988           0.81160003          35.73899841 -0.000218159755611004 -7.28559413110289e-05 -0.00203808167397897   0.0134436482044755
6 Pt          15.46299934           0.81160003          35.73899841 0.000149603854957729 -0.000321388003850094 -5.2005058190648e-05 -0.00232079186905875
7 Pt                    0           3.24640012          35.73899841  0.00478696380836242  0.00393673735517612  -0.0244210179863218    0.045634073697859
8 Pt           2.81149983           3.24640012          35.73899841 0.000598024651547708 -0.00214072148422492   -0.131384559564705   0.0981253573188427
9 Pt           5.62290001           3.24640012          35.73899841 -0.00123117281635812 -0.00134697648325734  -0.0016770365231815   0.0114501261980856
10 Pt            8.4343996           3.24640012          35.73899841 0.000156016587365814 -0.000138896537811592 -5.45901751341472e-05 -0.00272155727702159
11 Pt          11.24580002           3.24640012          35.73899841  0.00013938933609807 -1.70111283959282e-05 -0.00013708036859322  0.00221127679097448
12 Pt          14.05730057           3.24640012          35.73899841 0.000973798319260664 -0.000946653092899563 -0.00242951820801223   0.0142610739318704
13 Pt           1.40569997           5.68120003          35.73899841  0.00247428856528985 -0.00358530929889561  -0.0226284948487595   0.0441714592087943
14 Pt            4.2171998           5.68120003          35.73899841 -0.00496821423494501  0.00275086690086414 -0.00645693368351544   0.0235663493316845
15 Pt           7.02859974           5.68120003          35.73899841  0.00188986882643119  0.00268982815170877 -0.00332128851797919   0.0160801550120227
16 Pt           9.84009933           5.68120003          35.73899841  0.00116952173814667 0.000179763208234826 -0.000121172780316921 -0.00424813200633636
17 Pt          12.65159988           5.68120003          35.73899841 -0.00198741128579458 0.000322314644288926 -0.00215882960658787  -0.0153024821779374
18 Pt          15.46299934           5.68120003          35.73899841 0.000535391179104706 -0.00150864160761952 -0.00188944185712805   0.0117270140653682
19 Pt                    0           8.11599922          35.73899841   0.0018327476196423 0.000852214158363557 -0.000283011420655677  0.00654144737470789
20 Pt           2.81149983           8.11599922          35.73899841  0.00437031016762853    0.012236538426532   -0.122621483109934   0.0976229841697482
21 Pt           5.62290001           8.11599922          35.73899841 -0.000584678933410951  0.00575199865841753  -0.0384866113663932   0.0578067337681336
22 Pt            8.4343996           8.11599922          35.73899841 -0.00879831509314146  0.00659159801227001   -0.103358552426324    0.087360339846018
23 Pt          11.24580002           8.11599922          35.73899841 -5.51504137759942e-05 9.88339785357453e-05 -2.69580087957689e-05  0.00061860947610469
24 Pt          14.05730057           8.11599922          35.73899841 0.000331681536164208 5.48331069979821e-05 -9.46515755708322e-05 -0.00462241322056826
25 Pt           1.40569997          10.55079937          35.73899841   0.0123730743621625  0.00185092354095943   -0.132227563924942    0.101642733162477
26 Pt            4.2171998          10.55079937          35.73899841  -0.0134975105458911 -0.00352167990815735  -0.0821737143823737   0.0821499140845342
27 Pt           7.02859974          10.55079937          35.73899841 -0.00338697341796609 -0.00535277907822647 -0.00717123487799263   0.0254539006601643
28 Pt           9.84009933          10.55079937          35.73899841 -0.000403980244791017 -0.000870250365428714 -0.000585710623502599  0.00619758011102365
29 Pt          12.65159988          10.55079937          35.73899841 -0.00113365359897636 -0.000166949722475825 -0.00149975310748732  -0.0108482249368898
30 Pt          15.46299934          10.55079937          35.73899841 -0.00129283866152188 -0.000315452991909218 -0.00148415447116328  -0.0082782035449409
31 Pt                    0          12.98560047          35.73899841  0.00117126002938273 -0.00254461446659591 -0.00141919728538438   0.0104052628506821
32 Pt           2.81149983          12.98560047          35.73899841 -0.00113636869342646  -0.0083454648137385  -0.0107712221876312   0.0296032131928506
33 Pt           5.62290001          12.98560047          35.73899841 -0.000178713662820893  0.00240598369751836 -0.00110376886005855  -0.0102407279214643
34 Pt            8.4343996          12.98560047          35.73899841 0.000100995685544065 0.000386433771335926 -0.000588538300637375  0.00603395129212595
35 Pt          11.24580002          12.98560047          35.73899841 0.000363677094227794 0.000593211545985151 -0.00226172115386228   0.0131019475604086
36 Pt          14.05730057          12.98560047          35.73899841 -0.000540177709820769  3.6478100850693e-05 -0.000886159721990413  0.00804694151424801
37 Pt                    0           1.62320006          38.03450012 -3.96752863583155e-07 7.34204183475018e-06 -5.39672908269701e-06 -0.000808834951933085
38 Pt           2.81149983           1.62320006          38.03450012 -6.43174686744294e-07  3.2108861377171e-05 -1.86348893197547e-05  -0.0015285744331321
39 Pt           5.62290001           1.62320006          38.03450012 -4.14580634280055e-07 -1.29075287464796e-06 -2.53478427897756e-06 -0.000502572672856261
40 Pt            8.4343996           1.62320006          38.03450012 -2.1397668015256e-07 -4.10089576208611e-07 -1.4408391081847e-07 0.000149978941316162
41 Pt          11.24580002           1.62320006          38.03450012 5.95009356416916e-07 6.17158171175027e-07 -5.91298942711251e-07 -0.000260237557082855
42 Pt          14.05730057           1.62320006          38.03450012 -9.03069812540142e-07 5.01834718158307e-07 -4.0353474330102e-07 -0.000307691254082054
43 Pt           1.40569997           4.05799961          38.03450012 4.30483853166368e-05 -2.33584844331433e-05 -0.000112253881281926 -0.00337397732881917
44 Pt            4.2171998           4.05799961          38.03450012 -4.47005625989636e-05 -1.25471276341545e-05 -9.70558691500126e-05 -0.00304301649196521
45 Pt           7.02859974           4.05799961          38.03450012 -6.56409225780732e-06 3.50431623699916e-06 -9.27477706188753e-06 -0.00084968066968475
46 Pt           9.84009933           4.05799961          38.03450012 6.51460857882951e-07 -4.30112932769305e-07 -3.47655425840529e-07 -0.000148767644757319
47 Pt          12.65159988           4.05799961          38.03450012 3.37391797401561e-07 -1.47174662022709e-06 -1.11201440100716e-06 -0.000323951082994735
48 Pt          15.46299934           4.05799961          38.03450012 6.10990745187634e-06 -4.36074660518893e-06 -1.14179466165445e-05 -0.00110540442105897
49 Pt                    0           6.49280024          38.03450012  7.0040738430357e-06 -3.36211128669501e-06 -3.3441265229518e-05 -0.00171440294679914
50 Pt           2.81149983           6.49280024          38.03450012 -1.27621102497597e-05 5.00393594125749e-05 -0.000110104847426208 -0.00327996586162158
51 Pt           5.62290001           6.49280024          38.03450012 -3.25150761530604e-06 1.37201896284881e-05 -6.94196975674281e-05 -0.00252610667712383
52 Pt            8.4343996           6.49280024          38.03450012 -4.39152828374763e-06 4.22959299716527e-05 -3.02006638383026e-05 -0.00184672066293685
53 Pt          11.24580002           6.49280024          38.03450012 -4.79094373413062e-06 2.69138996599769e-06 -2.02052028796049e-05 -0.00114789998208221
54 Pt          14.05730057           6.49280024          38.03450012 1.13366528112403e-06  2.0465038245457e-07 -6.3230949271347e-08 -0.000160100597258526
55 Pt           1.40569997           8.92759991          38.03450012  7.6201501441731e-05 4.50043395452885e-05 -0.000136595957827201 -0.00378914170077693
56 Pt            4.2171998           8.92759991          38.03450012 -4.76412456272973e-05 2.69504842348317e-06 -0.000199442838667379 -0.00445379799183197
57 Pt           7.02859974           8.92759991          38.03450012 2.13241527535639e-05 -3.54048239366575e-05 -7.59615821942401e-05 -0.00290785835172565
58 Pt           9.84009933           8.92759991          38.03450012 -3.17579571321326e-05 -1.97621020766643e-05 -2.40906163316524e-05 -0.00174641268981187
59 Pt          12.65159988           8.92759991          38.03450012 2.44280098564216e-07 7.36151085102647e-07 -6.73261558970729e-07 0.000253721942413444
60 Pt          15.46299934           8.92759991          38.03450012 6.44638398690784e-07 -2.32374587958235e-06 -2.25366485203429e-06 -0.000373737180403006
61 Pt                    0          11.36240005          38.03450012 3.09318192895583e-05 -1.15306421397212e-05 -1.7338947046236e-05 -0.00142569299604627
62 Pt           2.81149983          11.36240005          38.03450012 -1.31055009752694e-05 -5.71397271607533e-05 -0.000108245445023675 -0.00347042033873389
63 Pt           5.62290001          11.36240005          38.03450012 -1.79255536545386e-05 -2.31890316047063e-05 -2.84600051411643e-05  -0.0017005533680609
64 Pt            8.4343996          11.36240005          38.03450012 -3.71633372417306e-06 -3.30846104119414e-06 -2.53232161655873e-05 -0.00142869719559928
65 Pt          11.24580002          11.36240005          38.03450012 -2.90970783089676e-06 2.43875291843864e-06 -5.94073033427251e-06 -0.000638480895399081
66 Pt          14.05730057          11.36240005          38.03450012 -1.83214040164566e-07 -1.62980351972537e-06 -1.34221731555801e-06 0.000380327020918977
67 Pt           1.40569997          13.79719925          38.03450012 3.76715742425413e-06 -4.20639775919674e-06 -2.25655561589254e-05 -0.00134343864322473
68 Pt            4.2171998          13.79719925          38.03450012 -5.9929393077132e-06 1.21470885350028e-06 -3.22561832662153e-05 -0.00155644958404103
69 Pt           7.02859974          13.79719925          38.03450012 -8.17016004877735e-07 4.14750433197177e-07 -1.8525003320055e-06 -0.000367982829577861
70 Pt           9.84009933          13.79719925          38.03450012 -3.2510246968684e-08  1.2375177327131e-07 -3.65170189458149e-08 1.88917344809091e-05
71 Pt          12.65159988          13.79719925          38.03450012 -7.31388290543093e-08 2.37861974308379e-07 -1.16125446047541e-06 -0.000397735115215611
72 Pt          15.46299934          13.79719925          38.03450012 2.69523335681264e-06 -4.34225542357826e-07 -1.33743083988059e-05 -0.000981772142786889
73 Pt                    0                    0          40.33010101 1.13237137344375e-08 -7.74521356014598e-09 -7.01470841119571e-08 8.26376079639953e-05
74 Pt           2.81149983                    0          40.33010101 -5.58198999007336e-10 -8.26068992279831e-10 -1.26036327335663e-07 0.000111946303128137
75 Pt           5.62290001                    0          40.33010101 -1.80130435666672e-08 -1.45048612415645e-08 -3.01961956915914e-08 5.70046445067958e-05
76 Pt            8.4343996                    0          40.33010101 -7.11333933842287e-10 -5.18657776148779e-10 -5.96671157970731e-09 2.05199470932109e-05
77 Pt          11.24580002                    0          40.33010101 -7.07699932394949e-11 8.19266046813876e-10 -5.0673690809059e-10 7.51415789419519e-06
78 Pt          14.05730057                    0          40.33010101 7.44738926369889e-09 -2.79164150439374e-09 -1.01643480410135e-08 3.22100258284125e-05
79 Pt           1.40569997           2.43479991          40.33010101 -5.71357420880443e-09 2.79652084087497e-09 -5.26875811881176e-09 3.13137246567113e-05
80 Pt            4.2171998           2.43479991          40.33010101 1.18603553082003e-08 7.98040636331291e-09 -1.62148898609828e-08 4.35013121914473e-05
81 Pt           7.02859974           2.43479991          40.33010101 -4.56861143173117e-09 9.17627887070363e-09 -1.83751655143287e-08 4.03686360286357e-05
82 Pt           9.84009933           2.43479991          40.33010101 -1.27890015062986e-10 -1.39353528201651e-10 6.04417804250028e-11 5.12154161801673e-06
83 Pt          12.65159988           2.43479991          40.33010101 -1.14416717740605e-10 -1.40928347948607e-10 -1.20436531878227e-09 -6.82284442950592e-06
84 Pt          15.46299934           2.43479991          40.33010101 5.58613577493835e-10 -1.58485064954331e-11 -2.09444684635778e-09 1.95187787743291e-05
85 Pt                    0           4.86959982          40.33010101 4.64561187209953e-08 3.73830348156513e-09 -1.12068532900527e-07 0.000105632706670026
86 Pt           2.81149983           4.86959982          40.33010101  3.8017862296011e-09 7.02820870598978e-08 -1.57995451706049e-07 0.000126082316330687
87 Pt           5.62290001           4.86959982          40.33010101 -5.97859507547927e-08 2.36359089245952e-08 -1.82847387892094e-07 0.000132939855502666
88 Pt            8.4343996           4.86959982          40.33010101 -7.22936620083958e-09 2.84822061956436e-08 -1.19587738194617e-07 9.89612998861062e-05
89 Pt          11.24580002           4.86959982          40.33010101 1.67978926294147e-09 2.34454228853422e-08 -2.6663795984172e-08 5.43245482702734e-05
90 Pt          14.05730057           4.86959982          40.33010101 1.01739920605352e-09 -1.5819722179602e-09 -1.60587414039236e-08 3.95570137559505e-05
91 Pt           1.40569997           7.30439949          40.33010101 -1.98956055993618e-08 1.86170306097796e-08 -1.57817893283881e-07 0.000129826272774264
92 Pt            4.2171998           7.30439949          40.33010101 1.70284673400778e-08 1.67498771117279e-09 -2.01591060989588e-07 0.000143832051725115
93 Pt           7.02859974           7.30439949          40.33010101 -2.91069010743644e-08 -1.09987822712598e-08 -1.58243533955115e-08 4.89270247187093e-05
94 Pt           9.84009933           7.30439949          40.33010101 9.85564349660089e-09 -9.10459618547049e-09  -8.254226423188e-10 2.34276086432736e-05
95 Pt          12.65159988           7.30439949          40.33010101 -1.21527226731082e-08 -1.41652123805772e-08 -1.63226683113759e-08 3.95658621168045e-05
96 Pt          15.46299934           7.30439949          40.33010101 1.97011743023435e-08 -1.74461247202496e-09 -1.17156577291943e-08 3.83849331848198e-05
97 Pt                    0           9.73919964          40.33010101 8.00240540614782e-09 -3.88973915909573e-08 -7.1967247206442e-08  8.3445315829525e-05
98 Pt           2.81149983           9.73919964          40.33010101 1.93841048924025e-08 -1.00916087431901e-08 -1.52584934613253e-08 6.02826070617419e-05
99 Pt           5.62290001           9.73919964          40.33010101 -1.02234664945051e-08 -6.05866367278444e-08 -1.76201187940215e-07 0.000128604208123861
100 Pt            8.4343996           9.73919964          40.33010101 -9.09303221084479e-09 2.19752428095592e-08 -2.09564682670724e-08 4.74445612781355e-05
101 Pt          11.24580002           9.73919964          40.33010101 -2.25851425993614e-08 5.71664830780367e-09 -6.18321662068861e-08 7.03391357419891e-05
102 Pt          14.05730057           9.73919964          40.33010101  4.8003713520246e-09 1.81307607734767e-09 -1.01411701099866e-08 2.73446950239037e-05
103 Pt           1.40569997          12.17399979          40.33010101 2.36997990495175e-08 2.04801891722265e-08 -3.13674725257093e-08 6.45758166700279e-05
104 Pt            4.2171998          12.17399979          40.33010101 -2.65567221849715e-08 2.08503829273034e-08 -1.46362912321195e-07 0.000119077875300607
105 Pt           7.02859974          12.17399979          40.33010101 -1.54539505233217e-08 -2.04301454859804e-08 -9.3969209719501e-08 9.20992997253465e-05
106 Pt           9.84009933          12.17399979          40.33010101 -6.44509567517067e-09 -1.15368080700241e-08 -6.69602750342764e-09 2.97732222722999e-05
107 Pt          12.65159988          12.17399979          40.33010101 -2.5502318172512e-09 -1.88733859682381e-09 -2.74174051251613e-09 1.73444148926268e-05
108 Pt          15.46299934          12.17399979          40.33010101 2.70922114552984e-08 -2.45946820423054e-10 -5.71018725129444e-08 7.02366494718985e-05
109 Pt           1.40569997           0.81160003           1.14759994 -1.46832216000797e-08 2.51651977098034e-08  7.5016787243113e-09 -3.71100039641894e-05
110 Pt            4.2171998           0.81160003           1.14759994 -3.33685561053172e-10 2.71403887667372e-08 2.55578802454048e-08 -5.01737562235666e-05
111 Pt           7.02859974           0.81160003           1.14759994 7.52581443762092e-10 -1.80274182917558e-09 4.32857872180952e-09 1.32344617884243e-05
112 Pt           9.84009933           0.81160003           1.14759994  7.9251188720666e-09 1.29210757897098e-08 2.31172245361927e-08 -4.92867936659191e-05
113 Pt          12.65159988           0.81160003           1.14759994 2.90397658248897e-08 3.82650811188548e-08 1.12891288963039e-07 -0.000105662947636031
114 Pt          15.46299934           0.81160003           1.14759994  1.9324695949614e-09 9.25950262029345e-09 4.59162940144833e-08 -8.19416321723346e-05
115 Pt                    0           3.24640012           1.14759994 2.47133815101865e-08 -1.21549088335075e-08 1.10785791864876e-07 -0.000113952308489792
116 Pt           2.81149983           3.24640012           1.14759994 -7.76915073238511e-09 3.42114168442712e-08 1.48799740343345e-07 -0.00012622986877116
117 Pt           5.62290001           3.24640012           1.14759994 -1.69254309812693e-08 -7.01886267038776e-10 1.21589872830344e-09 -2.64997659994804e-05
118 Pt            8.4343996           3.24640012           1.14759994 -7.20615973762982e-09 5.00906660127808e-09 2.89930766538729e-08  -5.222673383019e-05
119 Pt          11.24580002           3.24640012           1.14759994 1.85570589960256e-08 -8.9113187981385e-09 3.54034091572403e-08 -5.81896110014982e-05
120 Pt          14.05730057           3.24640012           1.14759994 3.01397249106057e-08 -2.7847209652286e-08 9.30991879524146e-08 -0.000100108205171944
121 Pt           1.40569997           5.68120003           1.14759994 2.78619324044707e-08 -2.67105343627283e-08 1.24747735606154e-07 -0.000116031720992691
122 Pt            4.2171998           5.68120003           1.14759994 -2.73342455039796e-08 -7.7554160041159e-09 1.21519974964772e-08 -4.62525491821446e-05
123 Pt           7.02859974           5.68120003           1.14759994  5.8496497383726e-09 -1.90062757826086e-08 2.19849386136044e-08 -4.09666272004181e-05
124 Pt           9.84009933           5.68120003           1.14759994 -4.15469919917754e-09 -1.37316347333437e-08 1.94241314011639e-08 -3.22552908382862e-05
125 Pt          12.65159988           5.68120003           1.14759994 1.76072856221239e-08 -1.55104892497718e-08 2.76029527222303e-08 -4.6884454245144e-05
126 Pt          15.46299934           5.68120003           1.14759994 -3.87219364081469e-09 -2.95277154257532e-08 1.18666612430933e-07 -0.000109639524992996
127 Pt                    0           8.11599922           1.14759994 -9.04303158767136e-09 -2.4107136435255e-10 6.52419835564229e-08 -8.16910101942837e-05
128 Pt           2.81149983           8.11599922           1.14759994 -1.46549942535661e-09 -9.85493500762583e-09 2.70184675508917e-08 -5.86735859700389e-05
129 Pt           5.62290001           8.11599922           1.14759994 1.31480811694268e-08   1.771797555969e-09 2.40008582523036e-08 3.93392295417877e-05
130 Pt            8.4343996           8.11599922           1.14759994 2.18628618689418e-08 -1.50697400185537e-08 3.64189916445829e-08 5.62262054125978e-05
131 Pt          11.24580002           8.11599922           1.14759994 -1.64692346067236e-08 -2.2775074650547e-08 3.25657010427984e-08 5.77566210822857e-05
132 Pt          14.05730057           8.11599922           1.14759994 2.19055411383369e-09 -9.70973494586319e-10 -8.34000276541374e-10 -3.83508352788062e-06
133 Pt           1.40569997          10.55079937           1.14759994 -2.71929452789692e-08 -5.6686415608541e-09 6.16934233743557e-08 -7.23897287220416e-05
134 Pt            4.2171998          10.55079937           1.14759994 8.22112210856701e-09 1.87404341066583e-09 1.79587532717674e-08 -4.14341444912159e-05
135 Pt           7.02859974          10.55079937           1.14759994 -5.56541560593843e-09 2.46023051064208e-09 7.30585510426772e-09 2.16239328376673e-05
136 Pt           9.84009933          10.55079937           1.14759994 3.86174034090707e-09 9.65767070250148e-10 6.46728624015669e-09 -1.8150808745245e-05
137 Pt          12.65159988          10.55079937           1.14759994 -5.14476084106628e-09 9.88545863307237e-09 5.95834181061375e-08 -6.92744764348403e-05
138 Pt          15.46299934          10.55079937           1.14759994 -7.20306042285359e-09 -1.31988610446661e-08 4.32878217236074e-09 -3.30478435409932e-05
139 Pt                    0          12.98560047           1.14759994 -7.54369203363461e-09 -6.42452589455356e-09 6.72620245862845e-08 -7.64346126957692e-05
140 Pt           2.81149983          12.98560047           1.14759994 -1.33979141862052e-09 -1.84685316866795e-08 9.55014705005666e-08 -8.27360315930189e-05
141 Pt           5.62290001          12.98560047           1.14759994 -2.28636644783348e-08 -1.31889878998394e-08 4.32550346664635e-08 -5.79916137958886e-05
142 Pt            8.4343996          12.98560047           1.14759994 -6.22129853514262e-09 -6.43941863255666e-09 1.19215981720718e-08 2.92551536703862e-05
143 Pt          11.24580002          12.98560047           1.14759994 4.74183940577243e-09 1.19012545754545e-08 7.47593992792078e-09 -2.98571071625046e-05
144 Pt          14.05730057          12.98560047           1.14759994 1.03411112917934e-08 4.94977903376509e-09 5.34256689849449e-08 -7.49425211055205e-05
145 Pt                    0           1.62320006           3.44320011 -4.67400797731865e-05 9.71031571185185e-06 0.000167845483697709  0.00418977706536467
146 Pt           2.81149983           1.62320006           3.44320011 -1.59789327844569e-05 4.41385347360655e-06 1.66133447672522e-05  0.00130891820223627
147 Pt           5.62290001           1.62320006           3.44320011 1.17291137897018e-05 4.88120920156577e-06 1.07136176996834e-05  0.00109269061037908
148 Pt            8.4343996           1.62320006           3.44320011 -1.25247329396838e-05 -1.45220354012807e-05 3.00704839566703e-05  0.00179138310184102
149 Pt          11.24580002           1.62320006           3.44320011 6.25948079810231e-06 -6.19510760219126e-06 3.33046337162317e-05  0.00170469202809266
150 Pt          14.05730057           1.62320006           3.44320011 6.34058418410043e-05 -1.87869560263488e-05 0.000159419561047034  0.00397007399259347
151 Pt           1.40569997           4.05799961           3.44320011 -2.43779001541383e-05  9.8869693155869e-07 0.000140002474838542  0.00372738557901251
152 Pt            4.2171998           4.05799961           3.44320011 -4.68798630508744e-06 2.29023525258475e-05 4.47840357933773e-05  0.00205593130862688
153 Pt           7.02859974           4.05799961           3.44320011 -1.36527657021744e-05 -1.01260586689487e-05 5.43365408263999e-06 0.000656741387325844
154 Pt           9.84009933           4.05799961           3.44320011 -1.58701524382862e-06 2.16956362307734e-05  1.4247412456044e-05 -0.00146603261148747
155 Pt          12.65159988           4.05799961           3.44320011 6.06781267566594e-06 -3.25141659454835e-06 2.05299136381634e-06 0.000351556995053138
156 Pt          15.46299934           4.05799961           3.44320011 4.03637291240566e-05 -3.11829917497399e-05 0.000126178301874325  0.00365065713877551
157 Pt                    0           6.49280024           3.44320011 1.01170409229237e-05 -1.64601551547026e-05 6.88108028073743e-05  0.00280331757956367
158 Pt           2.81149983           6.49280024           3.44320011 -5.45494490426267e-06 8.58329582762216e-06 9.55231173524755e-05  0.00310474241215004
159 Pt           5.62290001           6.49280024           3.44320011 -7.37916944218283e-06 -2.96704907530194e-07 5.25804052113491e-07 0.000673430962248331
160 Pt            8.4343996           6.49280024           3.44320011 8.56581957506587e-06 -1.60415217641425e-05 1.58034480140026e-05 -0.00144066602570566
161 Pt          11.24580002           6.49280024           3.44320011 -1.32929903460518e-05 -1.35742041891257e-05 2.19509261384161e-05 -0.00156762332667107
162 Pt          14.05730057           6.49280024           3.44320011 1.38527926193452e-05 1.83226938319641e-06 3.95961768894547e-05  0.00193760668701365
163 Pt           1.40569997           8.92759991           3.44320011 1.89111849646141e-06 -2.27567822619412e-05 2.75643572123773e-05  0.00160228504256009
164 Pt            4.2171998           8.92759991           3.44320011 4.13525134674963e-06 -1.71281996143274e-05 2.63593731825835e-05   0.0016634007358136
165 Pt           7.02859974           8.92759991           3.44320011 1.35970592963951e-05 3.42816011404759e-06 5.19073451789369e-06 -0.000670735695563951
166 Pt           9.84009933           8.92759991           3.44320011  6.9306000489296e-06 3.00083564379291e-05 9.77284468534944e-05 -0.00323391273496247
167 Pt          12.65159988           8.92759991           3.44320011 -2.44238796163538e-05 1.29980990732769e-05 1.44587339375338e-05 -0.00122812581828299
168 Pt          15.46299934           8.92759991           3.44320011 -2.93018797245133e-06 -1.49956887672047e-05 3.93941301386101e-05  0.00190771397576426
169 Pt                    0          11.36240005           3.44320011 2.11630656223848e-06 5.81304819912282e-07 -8.52275659653969e-08 -8.64140313019545e-05
170 Pt           2.81149983          11.36240005           3.44320011 -8.79833945372276e-07 3.17864628895674e-05 2.52139633464539e-05 -0.00192458853987145
171 Pt           5.62290001          11.36240005           3.44320011 4.62894281550201e-07 -3.18430634268825e-07 9.79414475649587e-08 2.76360893928323e-05
172 Pt            8.4343996          11.36240005           3.44320011  2.9116581897374e-07 -1.35335254193081e-05 7.44112391508974e-06 -0.000873626307614038
173 Pt          11.24580002          11.36240005           3.44320011 -8.56738044930977e-08 -8.8381657470053e-06 -1.31264533568989e-07 -0.000389064845129741
174 Pt          14.05730057          11.36240005           3.44320011  1.1275203765026e-05 7.63053406602342e-06 2.60385919544217e-05  0.00156569421300169
175 Pt           1.40569997          13.79719925           3.44320011 2.17586948805562e-06 -5.35582290289174e-06 5.44832326715037e-07 -0.000222782666345256
176 Pt            4.2171998          13.79719925           3.44320011 2.96196292711777e-07 -7.0258504047428e-06 -4.67275174595466e-07 -0.000393261954028059
177 Pt           7.02859974          13.79719925           3.44320011 1.92794288529642e-06 2.07848237451869e-06 -4.20604295876684e-07 0.000330686840341988
178 Pt           9.84009933          13.79719925           3.44320011 -7.83078982526129e-07 1.20680491568644e-05  1.6032685793143e-05  0.00136460873247583
179 Pt          12.65159988          13.79719925           3.44320011 1.50183745894012e-05 1.26836606315616e-05 3.47316773909458e-05  0.00196104089497915
180 Pt          15.46299934          13.79719925           3.44320011 -6.43473827436306e-06 3.61230193824518e-05 9.56893671554433e-05   0.0031558681934432
181 Pt                    0                    0           5.73869991  0.00058158571753435  0.00795553041195745    0.059526254744181  -0.0714379101950106
182 Pt           2.81149983                    0           5.73869991  -0.0032746299804919  0.00239416747418246  0.00361132376948048  -0.0169931727126786
183 Pt           5.62290001                    0           5.73869991  0.00150211075551611 0.000393918938369971  0.00074292374347159 -0.00880739228348503
184 Pt            8.4343996                    0           5.73869991 -0.00413459342334953  -0.0100194634122627   0.0372508076387481  -0.0582897504784653
185 Pt          11.24580002                    0           5.73869991  0.00342501197894005 -0.00340303663874929   0.0142931425081749  -0.0362865858859499
186 Pt          14.05730057                    0           5.73869991 -0.000744952108031341  -0.0034442746402218   0.0700296546252227  -0.0767747072532869
187 Pt           1.40569997           2.43479991           5.73869991  -0.0110494953529083 -0.000962601525475362   0.0455500673654249  -0.0630666747886349
188 Pt            4.2171998           2.43479991           5.73869991 3.55264506094464e-05 -0.00013399455778574  0.00134070402766827   0.0080340910069121
189 Pt           7.02859974           2.43479991           5.73869991  0.00438118419285221 -0.00529723066949789   0.0286062809516981  -0.0456433355670022
190 Pt           9.84009933           2.43479991           5.73869991 -0.000423340280164737 -0.000775958203824305 0.000300751157062736 -0.00415265949174838
191 Pt          12.65159988           2.43479991           5.73869991  0.00581766897977764 -0.00274596091322898   0.0109811731029489  -0.0307453290116326
192 Pt          15.46299934           2.43479991           5.73869991  0.00341836318578319   0.0160858658523992      0.1178695564258  -0.0973782733133271