LAMMPS data file via write_data, version 17 Apr 2024, timestep = 0, units = metal

592 atoms
5 atom types

0 17.6069588515 xlo xhi
0 15.2480736488 ylo yhi
0 31.98 zlo zhi

Masses

1 16
2 1
3 132.90545
4 35.5
5 196.967

Atoms # full

109 0 5 -0.0001665760329969089 1.467 0.847 1.198 0 0 0
115 0 5 -0.0001202471641961311 0 3.388 1.198 0 0 0
116 0 5 -0.0001584408310986267 2.934 3.388 1.198 0 0 0
145 0 5 0.004689134980394934 0.037 1.727 3.5229999999999997 0 0 0
110 0 5 -0.000103227613033401 4.402 0.847 1.198 0 0 0
117 0 5 -0.0002851727744716571 5.869 3.388 1.198 0 0 0
147 0 5 0.007018391915062238 5.838 1.796 3.513 0 0 0
111 0 5 -7.794986571174611e-05 7.336 0.847 1.198 0 0 0
112 0 5 -6.814007882218961e-05 10.271 0.847 1.198 0 0 0
118 0 5 -0.0001488414985430786 8.803 3.388 1.198 0 0 0
148 0 5 0.007067391707080128 8.816 1.754 3.388 0 0 0
113 0 5 -0.0001859095416489685 13.205000000000002 0.847 1.198 0 0 0
119 0 5 -4.537131024827737e-05 11.738 3.388 1.198 0 0 0
149 0 5 0.007386597235535196 11.773 1.634 3.404 0 0 0
114 0 5 -0.0001704313559257545 16.14 0.847 1.198 0 0 0
120 0 5 -0.0001297507712652492 14.672 3.388 1.198 0 0 0
121 0 5 3.568272991070001e-05 1.467 5.93 1.198 0 0 0
158 0 5 0.005104921248442626 3.074 6.76 3.403 0 0 0
122 0 5 -0.0002254715027345915 4.402 5.93 1.198 0 0 0
123 0 5 -0.0002656870382479349 7.336 5.93 1.198 0 0 0
124 0 5 -0.0002284063911143271 10.271 5.93 1.198 0 0 0
153 0 5 0.004138305731621091 7.268 4.275 3.509 0 0 0
160 0 5 0.006917067260349293 8.764 6.692 3.5249999999999995 0 0 0
125 0 5 -0.0001852699587802133 13.205000000000002 5.93 1.198 0 0 0
126 0 5 -0.000101683207155678 16.14 5.93 1.198 0 0 0
156 0 5 0.00614389432252691 16.03 4.042 3.476 0 0 0
162 0 5 0.006846929164683904 14.708 6.729 3.541 0 0 0
127 0 5 4.511627253341727e-05 0 8.471 1.198 0 0 0
128 0 5 -1.829618573202796e-05 2.934 8.471 1.198 0 0 0
133 0 5 -0.000153504447691348 1.467 11.012 1.198 0 0 0
163 0 5 0.004644696496869112 1.592 9.359 3.52 0 0 0
129 0 5 -0.0002147283455534443 5.869 8.471 1.198 0 0 0
134 0 5 1.591979496927583e-05 4.402 11.012 1.198 0 0 0
130 0 5 -0.0001895445885575654 8.803 8.471 1.198 0 0 0
135 0 5 -0.0002013330553991225 7.336 11.012 1.198 0 0 0
136 0 5 -9.262721251955541e-05 10.271 11.012 1.198 0 0 0
131 0 5 -0.0001267994245360612 11.738 8.471 1.198 0 0 0
137 0 5 -0.0001335064280191846 13.205000000000002 11.012 1.198 0 0 0
167 0 5 0.005305229780534176 13.227000000000002 9.311 3.5499999999999994 0 0 0
132 0 5 -0.000111860268865208 14.672 8.471 1.198 0 0 0
138 0 5 -0.0001359061639997702 16.14 11.012 1.198 0 0 0
168 0 5 0.005537215102071003 16.136 9.432 3.544 0 0 0
139 0 5 -0.0002211526772289921 0 13.554 1.198 0 0 0
140 0 5 -1.516193294924875e-05 2.934 13.554 1.198 0 0 0
175 0 5 0.004973374747172312 1.531 14.473 3.511 0 0 0
141 0 5 -1.908108760072247e-05 5.869 13.554 1.198 0 0 0
171 0 5 0.005347455462872023 5.883 11.81 3.4849999999999994 0 0 0
142 0 5 -7.813690614673179e-05 8.803 13.554 1.198 0 0 0
172 0 5 0.007468717089528831 8.93 11.891 3.513 0 0 0
178 0 5 0.003621659341396263 10.403000000000002 14.336 3.532 0 0 0
143 0 5 -0.0001103830234177646 11.738 13.554 1.198 0 0 0
173 0 5 0.005062770846886219 11.957 11.875 3.45 0 0 0
144 0 5 -0.0001260848499482492 14.672 13.554 1.198 0 0 0
180 0 5 0.004555851362333397 16.26 14.454 3.5019999999999993 0 0 0
146 0 5 0.0043550564084213 3.046 1.6 3.6139999999999994 0 0 0
187 0 5 -0.1366466133863835 1.6330000000000002 2.358 5.927 0 0 0
183 0 5 -0.1348108757878946 5.936 0.133 5.91 0 0 0
188 0 5 -0.1376651762950923 4.39 2.299 5.96 0 0 0
184 0 5 -0.1496492149665547 8.986000000000002 0.108 5.886 0 0 0
189 0 5 -0.1116141516348295 7.264000000000001 2.379 6.027 0 0 0
190 0 5 -0.1372040151939287 10.161000000000001 2.627 5.832 0 0 0
185 0 5 -0.1677162928108579 11.675 0.317 6.167999999999999 0 0 0
191 0 5 -0.1544250932083838 13.161 2.599 5.815 0 0 0
150 0 5 0.00348877777144452 14.67 1.783 3.607 0 0 0
192 0 5 -0.1943792070780219 16.287 2.556 6.147 0 0 0
151 0 5 0.006653935326853698 1.552 4.216 3.5719999999999996 0 0 0
194 0 5 -0.1486209573359097 2.777 4.869 6.086 0 0 0
199 0 5 -0.1503748249628971 1.606 7.477 5.715999999999999 0 0 0
152 0 5 0.006991017156204531 4.35 4.176 3.609 0 0 0
159 0 5 0.005114947530591048 5.952000000000001 6.798 3.649 0 0 0
195 0 5 -0.1537828539895053 5.441 4.867 6.165 0 0 0
200 0 5 -0.1762253351648728 4.642 7.524 6.119999999999999 0 0 0
154 0 5 0.007925160196699241 10.295 4.282 3.7 0 0 0
196 0 5 -0.1336314852411287 8.597 4.932 5.96 0 0 0
202 0 5 -0.177298132610952 10.166 7.319 6.048 0 0 0
155 0 5 0.006283022249668617 13.137 4.338 3.688 0 0 0
161 0 5 0.008156007882218444 11.735 6.794 3.633 0 0 0
197 0 5 -0.1989926529454555 11.703 5.053 6.121999999999999 0 0 0
203 0 5 -0.1956070342729202 13.116 7.552 5.960999999999999 0 0 0
157 0 5 0.004715822880547792 17.5179588515 6.804 3.63 0 0 0
193 0 5 -0.120890074959126 17.5709588515 4.991 6.061 0 0 0
198 0 5 -0.1808009727586139 14.843000000000002 5.124 5.983999999999999 0 0 0
205 0 5 -0.1385363220818951 0.08700000000000001 10.033 5.932 0 0 0
206 0 5 -0.1593097338163721 3.1 9.938 5.935 0 0 0
164 0 5 0.007786750129446461 4.55 9.229 3.598 0 0 0
207 0 5 -0.155589165630293 5.944 10.058 6.085 0 0 0
165 0 5 0.008510212518370889 7.445000000000001 9.349 3.665 0 0 0
166 0 5 0.005995087414104362 10.271 9.322 3.668 0 0 0
201 0 5 -0.1769366088534974 7.556 7.703999999999999 6.157 0 0 0
208 0 5 -0.1923433005740205 8.819 10.101 6.22 0 0 0
209 0 5 -0.1619398347814652 11.637 10.072 6.018 0 0 0
204 0 5 -0.150054110684636 16.04 7.745 5.955 0 0 0
210 0 5 -0.1242543898416076 14.555 10.301 5.960999999999999 0 0 0
169 0 5 0.005173229054297112 0.07 11.971 3.5719999999999996 0 0 0
170 0 5 0.005103881471213245 2.8740000000000006 11.904 3.6399999999999997 0 0 0
182 0 5 -0.1155405297301881 2.739 14.8600736488 5.93 0 0 0
211 0 5 -0.1348313089820446 1.324 12.535 6.132 0 0 0
176 0 5 0.001264720033808994 4.554 14.332 3.623 0 0 0
212 0 5 -0.1708959274914383 4.389 12.493 5.893 0 0 0
177 0 5 0.003673787590608172 7.437 14.428 3.6389999999999993 0 0 0
213 0 5 -0.1490623620169465 7.463 12.647 5.929 0 0 0
214 0 5 -0.173899267433976 10.27 12.566 6.031999999999999 0 0 0
179 0 5 0.005077113056075095 13.366000000000001 14.573 3.5729999999999995 0 0 0
215 0 5 -0.1205195196765691 13.137 12.928 5.865 0 0 0
174 0 5 0.004538983117080027 14.758 12.051 3.668 0 0 0
181 0 5 -0.08175525996769063 17.4809588515 15.0450736488 6.031999999999999 0 0 0
186 0 5 -0.1351277731836095 14.643000000000002 15.1720736488 6.0969999999999995 0 0 0
216 0 5 -0.07911000273715452 16.084 12.586 6.06 0 0 0
266 0 1 -0.8476 2.74281 0.819592 8.418 0 0 0
267 0 2 0.4238 2.65578 1.42518 7.62699 0 0 0
268 0 2 0.4238 1.79908 0.911689 8.73564 0 0 0
326 0 1 -0.8476 0.1167411485000037 1.87158 8.9959 0 0 0
379 0 2 0.4238 5.87775 2.50601 10.5471 0 0 0
392 0 1 -0.8476 4.61412 2.63189 9.27292 0 0 0
393 0 2 0.4238 5.00364 2.45991 8.3681 0 0 0
394 0 2 0.4238 4.00351 1.908 9.594079999999998 0 0 0
252 0 2 0.4238 10.5155 2.23329 9.83676 0 0 0
253 0 2 0.4238 10.4294 2.45928 8.23058 0 0 0
389 0 1 -0.8476 7.74614 2.17125 9.11454 0 0 0
390 0 2 0.4238 8.72576 2.23041 8.92254 0 0 0
391 0 2 0.4238 7.45071 3.1098 9.29296 0 0 0
220 0 3 1 13.977 2.3 8.862 0 0 0
251 0 1 -0.8476 11.0524 2.40609 9.01099 0 0 0
227 0 4 -1 15.669 0.07092635120000157 10.648 0 0 0
327 0 2 0.4238 17.1643 1.92886 8.16895 0 0 0
328 0 2 0.4238 17.3512 1.08312 9.48544 0 0 0
357 0 2 0.4238 0.5683411484999997 4.92554 8.9885 0 0 0
398 0 1 -0.8476 2.08732 4.58162 9.49117 0 0 0
399 0 2 0.4238 1.78781 4.02129 10.2634 0 0 0
400 0 2 0.4238 2.41306 3.9178699999999997 8.817869999999997 0 0 0
224 0 3 1 4.913 5.524 10.348 0 0 0
314 0 1 -0.8476 10.4465 5.60932 9.13468 0 0 0
316 0 2 0.4238 10.4134 6.55372 8.80755 0 0 0
383 0 1 -0.8476 7.79832 4.8682 9.56259 0 0 0
384 0 2 0.4238 8.6976 4.94614 9.13223 0 0 0
385 0 2 0.4238 8.01824 5.16759 10.491 0 0 0
315 0 2 0.4238 10.8673 5.06533 8.40873 0 0 0
372 0 2 0.4238 10.6287 5.23094 10.6554 0 0 0
222 0 3 1 14.752 6.248 9.345999999999998 0 0 0
356 0 1 -0.8476 17.2686 5.22448 8.69124 0 0 0
358 0 2 0.4238 16.8288 4.32641 8.70061 0 0 0
223 0 3 1 1.426 7.763 9.138 0 0 0
280 0 2 0.4238 2.6386300000000005 10.7515 10.0613 0 0 0
348 0 2 0.4238 1.72684 11.233 8.15915 0 0 0
218 0 3 1 7.318 8.401 10.355 0 0 0
276 0 2 0.4238 10.1555 7.986360000000001 10.5273 0 0 0
307 0 2 0.4238 9.548620000000001 11.3414 9.97506 0 0 0
395 0 1 -0.8476 10.0193 8.30747 8.83248 0 0 0
397 0 2 0.4238 9.52662 8.64603 8.03084 0 0 0
287 0 1 -0.8476 10.9964 11.2121 9.507149999999998 0 0 0
288 0 2 0.4238 11.8094 11.0592 10.068999999999999 0 0 0
289 0 2 0.4238 11.1584 10.612 8.72387 0 0 0
368 0 1 -0.8476 12.818200000000001 8.7952 8.79773 0 0 0
369 0 2 0.4238 12.7494 8.1577 9.5651 0 0 0
370 0 2 0.4238 12.8487 8.31221 7.922629999999999 0 0 0
396 0 2 0.4238 10.9706 8.61551 8.84651 0 0 0
298 0 2 0.4238 14.5299 11.0893 9.42356 0 0 0
311 0 1 -0.8476 15.0655 9.09152 10.6405 0 0 0
347 0 1 -0.8476 1.83287 11.6095 9.07948 0 0 0
349 0 2 0.4238 1.00603 12.0714 9.400379999999998 0 0 0
219 0 3 1 4.169 13.593 8.996 0 0 0
221 0 3 1 10.212 14.085 8.93 0 0 0
305 0 1 -0.8476 8.61753 11.5304 10.2871 0 0 0
248 0 1 -0.8476 13.201 14.5724 8.88848 0 0 0
249 0 2 0.4238 13.695 14.2655 8.074949999999998 0 0 0
250 0 2 0.4238 13.693300000000002 14.0807 9.60676 0 0 0
296 0 1 -0.8476 14.648600000000002 11.9732 8.97101 0 0 0
297 0 2 0.4238 14.232400000000002 11.7774 8.08306 0 0 0
270 0 2 0.4238 3.26578 3.39718 12.866799999999998 0 0 0
281 0 1 -0.8476 2.40941 1.66289 12.950699999999998 0 0 0
282 0 2 0.4238 2.2406 1.44534 13.9121 0 0 0
283 0 2 0.4238 2.20496 0.820588 12.452 0 0 0
401 0 1 -0.8476 1.01061 3.0982 11.56 0 0 0
402 0 2 0.4238 1.6020500000000002 2.53325 12.1353 0 0 0
403 0 2 0.4238 0.609058 2.54081 10.8333 0 0 0
377 0 1 -0.8476 6.329250000000001 2.2664 11.4066 0 0 0
226 0 4 -1 9.931 0.6999263511999995 11.592 0 0 0
374 0 1 -0.8476 8.61035 3.26646 12.1612 0 0 0
375 0 2 0.4238 9.11123 2.57256 11.6439 0 0 0
378 0 2 0.4238 7.189230000000001 2.75657 11.5487 0 0 0
318 0 2 0.4238 13.6061 0.673291 13.3465 0 0 0
339 0 2 0.4238 11.5019 3.73312 13.998499999999998 0 0 0
350 0 1 -0.8476 12.7802 1.50008 11.5608 0 0 0
351 0 2 0.4238 11.857300000000002 1.14032 11.6979 0 0 0
352 0 2 0.4238 13.3082 0.753469 11.1561 0 0 0
363 0 2 0.4238 12.9798 3.12418 11.4031 0 0 0
290 0 1 -0.8476 15.8477 3.0237 13.460899999999999 0 0 0
292 0 2 0.4238 15.2481 2.24373 13.2816 0 0 0
317 0 1 -0.8476 14.6041 0.632834 13.3938 0 0 0
319 0 2 0.4238 15.016000000000002 0.354344 12.5262 0 0 0
299 0 1 -0.8476 0.984161 4.27705 13.8885 0 0 0
300 0 2 0.4238 0.35105500000000006 5.03113 14.063299999999998 0 0 0
301 0 2 0.4238 0.798393 4.06214 12.9297 0 0 0
269 0 1 -0.8476 3.78955 4.18286 12.5376 0 0 0
271 0 2 0.4238 4.3905 4.37416 13.313599999999997 0 0 0
275 0 1 -0.8476 10.0912 7.54103 11.4203 0 0 0
373 0 2 0.4238 10.5484 5.79465 11.996 0 0 0
376 0 2 0.4238 9.18552 4.07442 12.0332 0 0 0
239 0 1 -0.8476 12.8541 7.14149 11.1483 0 0 0
240 0 2 0.4238 11.8563 7.09387 11.1943 0 0 0
325 0 2 0.4238 13.787300000000002 4.94736 13.9466 0 0 0
362 0 1 -0.8476 13.222 4.05723 11.1371 0 0 0
364 0 2 0.4238 12.324300000000001 4.49011 11.2187 0 0 0
371 0 1 -0.8476 10.6121 4.88196 11.5923 0 0 0
291 0 2 0.4238 15.2473 3.81609 13.5685 0 0 0
323 0 1 -0.8476 14.6272 5.19407 13.4632 0 0 0
324 0 2 0.4238 14.2203 5.22063 12.550099999999999 0 0 0
278 0 1 -0.8476 2.99184 10.1361 10.765899999999998 0 0 0
279 0 2 0.4238 3.11675 10.5833 11.6515 0 0 0
344 0 1 -0.8476 1.6967100000000002 10.0255 13.750899999999998 0 0 0
346 0 2 0.4238 2.1237 9.19712 14.113399999999999 0 0 0
243 0 2 0.4238 6.90535 8.91097 13.918699999999998 0 0 0
341 0 1 -0.8476 5.748830000000001 10.7171 11.7211 0 0 0
342 0 2 0.4238 5.207510000000001 11.3939 12.22 0 0 0
343 0 2 0.4238 5.60635 10.9479 10.7586 0 0 0
242 0 1 -0.8476 7.84223 8.69228 13.6459 0 0 0
244 0 2 0.4238 8.05984 7.71888 13.7176 0 0 0
277 0 2 0.4238 10.2246 8.24733 12.115499999999999 0 0 0
329 0 1 -0.8476 10.5164 9.05479 13.4079 0 0 0
331 0 2 0.4238 9.52917 9.18181 13.5041 0 0 0
241 0 2 0.4238 13.0708 7.79797 11.8709 0 0 0
330 0 2 0.4238 10.900700000000002 8.23056 13.823699999999999 0 0 0
312 0 2 0.4238 14.254 9.59184 10.9425 0 0 0
313 0 2 0.4238 15.763800000000002 9.33592 11.3133 0 0 0
405 0 2 0.4238 16.1787 10.6602 13.5594 0 0 0
225 0 4 -1 1.526 14.645 11.058 0 0 0
261 0 2 0.4238 0.288717 13.7823 12.41 0 0 0
304 0 2 0.4238 3.35759 14.3735 11.9047 0 0 0
272 0 1 -0.8476 5.9962800000000005 12.8896 14.2037 0 0 0
273 0 2 0.4238 5.09927 13.2346 13.9274 0 0 0
302 0 1 -0.8476 4.33655 14.2754 11.725699999999998 0 0 0
303 0 2 0.4238 4.537780000000001 15.0556 12.3181 0 0 0
217 0 3 1 7.1770000000000005 13.838 11.531 0 0 0
306 0 2 0.4238 8.62132 11.4819 11.285899999999998 0 0 0
353 0 1 -0.8476 8.92519 14.4099 14.1477 0 0 0
355 0 2 0.4238 9.59598 14.9947 13.6917 0 0 0
332 0 1 -0.8476 12.3063 13.5466 11.9352 0 0 0
333 0 2 0.4238 12.2389 13.6293 12.9295 0 0 0
334 0 2 0.4238 11.6458 14.2923 11.848 0 0 0
260 0 1 -0.8476 17.388417851500005 13.4844 13.218599999999999 0 0 0
262 0 2 0.4238 16.6149578515 12.9721 12.845299999999998 0 0 0
320 0 1 -0.8476 14.908 12.5673 11.755299999999998 0 0 0
321 0 2 0.4238 14.3107 12.7952 12.524399999999998 0 0 0
322 0 2 0.4238 15.1903 13.4246 11.3248 0 0 0
386 0 1 -0.8476 2.01766 1.47552 15.397999999999998 0 0 0
387 0 2 0.4238 1.14113 1.8528 15.6969 0 0 0
388 0 2 0.4238 2.73897 1.84584 15.9833 0 0 0
293 0 1 -0.8476 6.897100000000001 0.91786 14.948599999999999 0 0 0
294 0 2 0.4238 6.12433 1.03159 14.3242 0 0 0
480 0 2 0.4238 6.148840000000001 1.83771 17.318900000000006 0 0 0
521 0 1 -0.8476 4.30111 2.20428 16.7761 0 0 0
522 0 2 0.4238 4.75755 2.92952 16.260700000000003 0 0 0
523 0 2 0.4238 4.34361 2.59775 17.6945 0 0 0
295 0 2 0.4238 7.62789 0.327772 14.6055 0 0 0
481 0 2 0.4238 7.7427 1.79449 17.604000000000003 0 0 0
527 0 1 -0.8476 9.261560000000001 1.33514 17.351700000000005 0 0 0
528 0 2 0.4238 9.91413 1.8495 16.7953 0 0 0
263 0 1 -0.8476 12.0564 1.09008 14.584299999999999 0 0 0
264 0 2 0.4238 11.2149 1.6256 14.5136 0 0 0
265 0 2 0.4238 12.7484 1.63107 15.062299999999999 0 0 0
500 0 1 -0.8476 12.0469 0.09002635120000023 17.128700000000002 0 0 0
501 0 2 0.4238 11.8922 0.5319263512000002 16.2451 0 0 0
256 0 2 0.4238 16.8273 0.7318263512000022 15.3322 0 0 0
587 0 1 -0.8476 14.171600000000002 2.31612 15.7877 0 0 0
588 0 2 0.4238 15.0455 2.5249 15.348700000000001 0 0 0
589 0 2 0.4238 14.3174 1.9111399999999998 16.690300000000004 0 0 0
284 0 1 -0.8476 1.25216 7.60366 16.074199999999998 0 0 0
285 0 2 0.4238 1.88251 7.54386 15.3002 0 0 0
380 0 1 -0.8476 1.6447500000000002 4.55779 16.431499999999996 0 0 0
381 0 2 0.4238 1.42221 3.8214899999999994 17.070499999999996 0 0 0
382 0 2 0.4238 1.8628300000000002 4.13302 15.5528 0 0 0
409 0 2 0.4238 3.07978 5.11032 16.847400000000004 0 0 0
407 0 1 -0.8476 4.00579 5.3239 17.158700000000003 0 0 0
408 0 2 0.4238 4.10312 6.30094 17.348200000000002 0 0 0
427 0 2 0.4238 6.6564700000000006 7.35922 15.8211 0 0 0
425 0 1 -0.8476 7.24893 7.16242 16.6023 0 0 0
530 0 1 -0.8476 9.96951 7.50942 17.114 0 0 0
531 0 2 0.4238 10.5069 6.67639 17.245400000000004 0 0 0
557 0 1 -0.8476 8.44271 4.74213 17.1383 0 0 0
558 0 2 0.4238 8.04342 5.65872 17.1175 0 0 0
335 0 1 -0.8476 11.513400000000003 6.90253 14.661599999999998 0 0 0
336 0 2 0.4238 11.9504 7.06752 15.545799999999998 0 0 0
337 0 2 0.4238 11.817700000000002 5.95679 14.5477 0 0 0
338 0 1 -0.8476 12.112500000000002 4.35946 14.483199999999998 0 0 0
340 0 2 0.4238 11.9842 4.18952 15.460299999999998 0 0 0
515 0 1 -0.8476 12.9062 7.42493 16.774700000000006 0 0 0
517 0 2 0.4238 13.5688 6.694 16.611100000000004 0 0 0
308 0 1 -0.8476 16.904 5.69677 15.4786 0 0 0
309 0 2 0.4238 17.4081 6.4854 15.8306 0 0 0
310 0 2 0.4238 17.5217 5.02127 15.881299999999998 0 0 0
449 0 1 -0.8476 14.6554 5.14108 16.5317 0 0 0
450 0 2 0.4238 14.341200000000002 4.2785 16.135200000000005 0 0 0
451 0 2 0.4238 15.4877 5.3802 16.0318 0 0 0
286 0 2 0.4238 0.665911 8.40761 15.9743 0 0 0
345 0 2 0.4238 1.4029500000000001 10.6202 14.499299999999998 0 0 0
512 0 1 -0.8476 3.4380800000000002 7.73203 17.538100000000004 0 0 0
514 0 2 0.4238 2.5432000000000006 7.87468 17.115200000000005 0 0 0
513 0 2 0.4238 4.13072 8.44349 17.4194 0 0 0
539 0 1 -0.8476 5.05649 9.56729 17.2149 0 0 0
540 0 2 0.4238 5.23981 9.83188 16.268100000000004 0 0 0
359 0 1 -0.8476 8.87436 10.8817 15.4391 0 0 0
360 0 2 0.4238 8.34539 10.042 15.315699999999998 0 0 0
361 0 2 0.4238 9.13909 11.2838 14.5626 0 0 0
426 0 2 0.4238 8.09539 7.67702 16.465500000000002 0 0 0
532 0 2 0.4238 10.505700000000001 8.33197 16.9246 0 0 0
365 0 1 -0.8476 13.4814 10.0292 15.9337 0 0 0
366 0 2 0.4238 13.9854 9.9243 15.0764 0 0 0
367 0 2 0.4238 13.26 9.12732 16.3046 0 0 0
516 0 2 0.4238 12.8495 7.63425 17.7509 0 0 0
404 0 1 -0.8476 15.6132 10.8993 14.3487 0 0 0
414 0 2 0.4238 14.175700000000003 10.5273 17.438399999999998 0 0 0
257 0 1 -0.8476 3.01453 13.9313 14.633099999999999 0 0 0
258 0 2 0.4238 3.4648 13.5043 15.4173 0 0 0
259 0 2 0.4238 2.86958 14.8684 14.9504 0 0 0
468 0 2 0.4238 3.03824 11.4621 17.069200000000002 0 0 0
274 0 2 0.4238 6.311340000000001 13.4121 14.995899999999999 0 0 0
467 0 1 -0.8476 3.5310700000000006 12.2724 16.7523 0 0 0
469 0 2 0.4238 4.496700000000001 12.109 16.9544 0 0 0
482 0 1 -0.8476 6.87794 12.0828 17.092200000000002 0 0 0
484 0 2 0.4238 6.53384 13.0009 16.8956 0 0 0
354 0 2 0.4238 9.043 14.4119 15.140799999999999 0 0 0
437 0 1 -0.8476 9.09759 14.0889 16.511700000000005 0 0 0
438 0 2 0.4238 10.0145 13.7274 16.6812 0 0 0
439 0 2 0.4238 9.11811 14.9408 17.035 0 0 0
483 0 2 0.4238 7.58529 11.8807 16.414800000000003 0 0 0
245 0 1 -0.8476 12.152600000000001 12.9056 15.873299999999999 0 0 0
246 0 2 0.4238 12.637800000000002 12.263 16.4663 0 0 0
247 0 2 0.4238 12.9022 13.2633 15.3163 0 0 0
459 0 2 0.4238 10.614800000000002 11.5837 17.499000000000002 0 0 0
502 0 2 0.4238 12.2575 14.3938 16.8758 0 0 0
254 0 1 -0.8476 16.887 14.9833 15.388499999999999 0 0 0
255 0 2 0.4238 17.2833 14.6503 14.532899999999998 0 0 0
406 0 2 0.4238 15.544600000000003 11.8883 14.48 0 0 0
548 0 1 -0.8476 15.1559 13.5564 17.321700000000003 0 0 0
550 0 2 0.4238 14.9065 12.6617 17.692300000000003 0 0 0
422 0 1 -0.8476 1.26525 2.35313 18.0943 0 0 0
423 0 2 0.4238 1.86083 1.58423 18.326800000000002 0 0 0
424 0 2 0.4238 0.350271 1.9501299999999997 18.114700000000006 0 0 0
440 0 1 -0.8476 1.79089 2.84875 20.6716 0 0 0
441 0 2 0.4238 1.4210000000000003 2.86174 19.742600000000003 0 0 0
442 0 2 0.4238 1.41078 1.99732 21.032900000000005 0 0 0
448 0 2 0.4238 3.51582 2.9039 19.879500000000004 0 0 0
542 0 1 -0.8476 1.31677 0.1742263511999995 20.6492 0 0 0
543 0 2 0.4238 0.6748620000000001 0.12962635120000013 19.883700000000005 0 0 0
446 0 1 -0.8476 4.34419 2.7993 19.3291 0 0 0
447 0 2 0.4238 4.96816 3.54839 19.551600000000004 0 0 0
479 0 1 -0.8476 6.8498600000000005 1.9663600000000003 18.020300000000002 0 0 0
490 0 2 0.4238 6.598390000000001 0.5037263511999985 19.012800000000002 0 0 0
567 0 2 0.4238 6.33838 2.92731 21.0593 0 0 0
568 0 2 0.4238 6.9486 2.39769 19.686300000000003 0 0 0
507 0 2 0.4238 10.055000000000001 1.42374 20.983900000000006 0 0 0
529 0 2 0.4238 9.55853 1.55601 18.280700000000003 0 0 0
566 0 1 -0.8476 7.17682 2.57469 20.6437 0 0 0
237 0 4 -1 12.988 3.671 19.124000000000006 0 0 0
477 0 2 0.4238 14.0833 1.7912263512000013 18.749800000000004 0 0 0
478 0 2 0.4238 13.4387 0.6360263512000001 17.8093 0 0 0
476 0 1 -0.8476 14.2967 1.0185263512000002 18.151900000000005 0 0 0
231 0 3 1 2.957 5.742 20.371000000000002 0 0 0
497 0 1 -0.8476 0.448355 5.88671 18.465700000000002 0 0 0
498 0 2 0.4238 0.883337 6.63087 17.9588 0 0 0
461 0 1 -0.8476 6.42268 7.2011 18.872 0 0 0
462 0 2 0.4238 6.61262 7.2803 17.893400000000003 0 0 0
470 0 1 -0.8476 5.58479 4.92842 19.901600000000002 0 0 0
471 0 2 0.4238 6.22749 5.05879 20.656600000000005 0 0 0
472 0 2 0.4238 5.85271 5.63857 19.250500000000002 0 0 0
463 0 2 0.4238 7.37028 7.22615 19.190400000000004 0 0 0
559 0 2 0.4238 8.848980000000001 4.78634 18.051000000000002 0 0 0
581 0 1 -0.8476 9.38433 5.14845 19.4363 0 0 0
582 0 2 0.4238 10.2624 5.361 19.865000000000002 0 0 0
583 0 2 0.4238 8.70943 5.26372 20.165200000000002 0 0 0
584 0 1 -0.8476 7.624090000000001 5.46684 21.304800000000004 0 0 0
555 0 2 0.4238 13.909 6.47382 19.5258 0 0 0
452 0 1 -0.8476 16.8823 6.32248 21.057500000000005 0 0 0
454 0 2 0.4238 15.9178 6.22962 20.8104 0 0 0
499 0 2 0.4238 17.6051129815 6.35467 19.226200000000002 0 0 0
554 0 1 -0.8476 14.7866 5.99536 19.554100000000002 0 0 0
556 0 2 0.4238 14.4637 5.05841 19.420600000000004 0 0 0
443 0 1 -0.8476 2.81553 8.76043 19.809300000000004 0 0 0
444 0 2 0.4238 3.04244 8.40093 18.904200000000003 0 0 0
445 0 2 0.4238 1.83088 8.75117 19.983600000000003 0 0 0
572 0 1 -0.8476 0.22164114850000333 8.56247 20.5354 0 0 0
541 0 2 0.4238 5.878700000000001 9.59857 17.783300000000004 0 0 0
563 0 1 -0.8476 6.98458 9.73475 18.983400000000003 0 0 0
551 0 1 -0.8476 9.11078 8.32027 19.5239 0 0 0
552 0 2 0.4238 9.82289 8.79323 20.0427 0 0 0
553 0 2 0.4238 9.418640000000002 7.875309999999999 18.682900000000004 0 0 0
564 0 2 0.4238 7.286760000000001 10.6412 18.688300000000005 0 0 0
565 0 2 0.4238 7.829220000000001 9.20547 19.063800000000004 0 0 0
415 0 2 0.4238 13.4259 11.3396 18.725700000000003 0 0 0
464 0 1 -0.8476 13.001900000000001 8.05834 19.5365 0 0 0
465 0 2 0.4238 13.8968 8.38354 19.842100000000002 0 0 0
466 0 2 0.4238 12.3551 8.73699 19.884500000000003 0 0 0
413 0 1 -0.8476 14.226800000000003 11.2432 18.134700000000002 0 0 0
573 0 2 0.4238 17.4931 7.677390000000001 20.8581 0 0 0
578 0 1 -0.8476 15.3171 9.53341 19.891500000000004 0 0 0
579 0 2 0.4238 15.126900000000001 10.2338 19.203500000000002 0 0 0
580 0 2 0.4238 16.3033 9.3709 19.9217 0 0 0
544 0 2 0.4238 1.77873 14.5361 20.686600000000006 0 0 0
569 0 1 -0.8476 2.26989 12.906 20.784400000000005 0 0 0
570 0 2 0.4238 3.0901900000000007 12.8284 20.217800000000004 0 0 0
571 0 2 0.4238 1.55687 12.2772 20.474200000000003 0 0 0
488 0 1 -0.8476 6.48873 15.127 19.7859 0 0 0
460 0 2 0.4238 9.735010000000003 12.252 18.633000000000003 0 0 0
489 0 2 0.4238 7.35861 14.7545 20.109300000000005 0 0 0
491 0 1 -0.8476 8.6345 14.0824 21.319000000000003 0 0 0
503 0 1 -0.8476 8.33108 12.3364 19.239700000000003 0 0 0
504 0 2 0.4238 7.665650000000001 12.5376 18.520900000000005 0 0 0
505 0 2 0.4238 8.33096 13.155 19.814 0 0 0
458 0 1 -0.8476 10.595 12.3564 18.1335 0 0 0
473 0 1 -0.8476 12.1957 11.9281 20.126900000000003 0 0 0
474 0 2 0.4238 13.0753 12.3944 20.220700000000004 0 0 0
475 0 2 0.4238 11.6957 12.2559 19.325200000000006 0 0 0
485 0 1 -0.8476 10.991900000000001 14.8162 19.5256 0 0 0
486 0 2 0.4238 11.3245 15.2258 18.6762 0 0 0
487 0 2 0.4238 10.9859 13.8585 19.237800000000004 0 0 0
236 0 4 -1 14.787 13.688 20.456000000000007 0 0 0
494 0 1 -0.8476 17.5652 11.8856 20.035500000000003 0 0 0
495 0 2 0.4238 17.3634 11.4439 19.1613 0 0 0
496 0 2 0.4238 16.8991 12.6189 20.172100000000004 0 0 0
549 0 2 0.4238 15.019800000000002 14.152 18.113400000000002 0 0 0
417 0 2 0.4238 0.7082411485000014 0.0009263512000021949 22.13265 0 0 0
435 0 2 0.4238 0.94905 3.72293 21.6517 0 0 0
510 0 2 0.4238 2.23528 3.16273 23.79655 0 0 0
233 0 3 1 4.21 0.563 21.51 0 0 0
431 0 1 -0.8476 5.38993 3.54497 22.936860000000003 0 0 0
432 0 2 0.4238 6.17358 3.5693 23.557600000000004 0 0 0
433 0 2 0.4238 4.586330000000001 3.52221 23.53159 0 0 0
506 0 1 -0.8476 10.3044 0.944554 21.8255 0 0 0
508 0 2 0.4238 9.59074 1.23934 22.460900000000002 0 0 0
228 0 3 1 13.321000000000002 1.0389263512000009 21.330000000000002 0 0 0
238 0 4 -1 11.388 3.533 23.14 0 0 0
410 0 1 -0.8476 12.0267 0.6796263511999996 24.136830000000003 0 0 0
411 0 2 0.4238 11.6827 1.5212263512000028 23.720450000000003 0 0 0
412 0 2 0.4238 13.0081 0.4869263512000016 24.166640000000005 0 0 0
560 0 1 -0.8476 15.674900000000001 2.66525 22.57023 0 0 0
561 0 2 0.4238 16.4784 3.18386 22.86268 0 0 0
562 0 2 0.4238 15.9623 2.65009 21.612500000000004 0 0 0
590 0 1 -0.8476 15.4071 0.00752635119999879 23.35961 0 0 0
592 0 2 0.4238 15.5043 0.9988263512000011 23.27111 0 0 0
434 0 1 -0.8476 0.310651 4.27804 22.18486 0 0 0
436 0 2 0.4238 0.738496 4.54231 23.049220000000002 0 0 0
509 0 1 -0.8476 2.56569 4.06816 23.530020000000004 0 0 0
511 0 2 0.4238 2.76871 4.50754 24.405080000000005 0 0 0
536 0 1 -0.8476 1.84955 7.22843 22.93756 0 0 0
537 0 2 0.4238 2.28942 6.47024 23.418860000000002 0 0 0
538 0 2 0.4238 0.914123 7.08314 23.259840000000004 0 0 0
524 0 1 -0.8476 4.56672 6.36132 23.320990000000002 0 0 0
525 0 2 0.4238 4.80573 5.40509 23.152190000000004 0 0 0
526 0 2 0.4238 5.30958 6.71273 23.890790000000003 0 0 0
533 0 1 -0.8476 10.533000000000001 6.64914 23.13785 0 0 0
575 0 1 -0.8476 8.44118 4.14582 23.34468 0 0 0
576 0 2 0.4238 9.430780000000002 4.13205 23.201470000000004 0 0 0
577 0 2 0.4238 8.4963 4.66484 24.197660000000003 0 0 0
585 0 2 0.4238 7.827330000000001 6.32562 21.775100000000002 0 0 0
586 0 2 0.4238 7.76321 4.83078 22.063760000000002 0 0 0
534 0 2 0.4238 10.8178 6.14892 23.955580000000005 0 0 0
535 0 2 0.4238 10.7905 6.02189 22.402850000000004 0 0 0
546 0 2 0.4238 13.2991 4.38686 23.1372 0 0 0
453 0 2 0.4238 17.4224 5.53956 21.366200000000003 0 0 0
545 0 1 -0.8476 14.1224 4.89652 22.88716 0 0 0
547 0 2 0.4238 14.713200000000002 4.11863 22.67319 0 0 0
230 0 3 1 2.619 10.134 22.554000000000002 0 0 0
574 0 2 0.4238 0.07324114850000238 8.91437 21.4597 0 0 0
232 0 3 1 5.422 8.326 21.373000000000005 0 0 0
234 0 3 1 8.623 10.545 21.837000000000003 0 0 0
419 0 1 -0.8476 12.982 11.1398 22.995950000000004 0 0 0
420 0 2 0.4238 12.7885 10.1664 23.118560000000006 0 0 0
229 0 3 1 15.807000000000002 11.202 22.430000000000003 0 0 0
416 0 1 -0.8476 0.4285411485000009 14.9525 23.04581 0 0 0
418 0 2 0.4238 0.5253411485000011 13.9591 23.108220000000003 0 0 0
455 0 1 -0.8476 0.7833810000000001 12.5668 23.196440000000003 0 0 0
456 0 2 0.4238 0.61382 12.3391 24.155310000000004 0 0 0
457 0 2 0.4238 1.7621300000000002 12.7313 23.31875 0 0 0
518 0 1 -0.8476 3.15454 13.3315 23.40408 0 0 0
429 0 2 0.4238 6.970880000000001 13.8125 24.187070000000002 0 0 0
519 0 2 0.4238 3.81183 12.9992 22.727670000000003 0 0 0
520 0 2 0.4238 3.63666 13.3086 24.279880000000002 0 0 0
428 0 1 -0.8476 7.0743100000000005 14.2548 23.296190000000003 0 0 0
430 0 2 0.4238 7.24219 15.2301 23.439890000000002 0 0 0
492 0 2 0.4238 8.19587 14.2395 22.203830000000004 0 0 0
493 0 2 0.4238 9.154330000000002 14.9363 21.341200000000004 0 0 0
235 0 3 1 11.259 13.486 22.468000000000004 0 0 0
421 0 2 0.4238 13.0483 11.5908 23.88603 0 0 0
591 0 2 0.4238 16.403 15.1807 23.305860000000003 0 0 0
1 0 5 -0.1130985284631349 1.641 0.907 25.871000000000006 0 0 0
8 0 5 -0.1871853673378427 2.86 3.189 26.075 0 0 0
2 0 5 -0.1644190420399001 4.468 0.823 25.828 0 0 0
9 0 5 -0.1718561889979736 5.817000000000001 3.228 25.932000000000002 0 0 0
39 0 5 0.008482491540472597 5.724 1.703 28.333000000000002 0 0 0
3 0 5 -0.1242795818458699 7.340000000000001 0.806 26.137 0 0 0
4 0 5 -0.07666440214003337 10.208 0.687 25.712 0 0 0
10 0 5 -0.08402595202536989 9.181 3.288 25.984 0 0 0
40 0 5 0.004113571308716813 8.953000000000001 1.691 28.373 0 0 0
5 0 5 -0.07111000169465895 13.118 0.788 25.911 0 0 0
11 0 5 -0.0004547119708578856 11.978 3.536 25.942 0 0 0
41 0 5 0.004817486359172798 11.778 1.565 28.415000000000003 0 0 0
6 0 5 -0.06803348763330369 16.208 1.084 26.102 0 0 0
7 0 5 -0.122497709051924 17.5029588515 3.513 25.966 0 0 0
12 0 5 -0.05194294500971806 14.755 3.415 26.078000000000003 0 0 0
42 0 5 0.002092596426115389 14.51 1.687 28.378000000000004 0 0 0
13 0 5 -0.1857858473101417 1.439 5.849 25.954000000000004 0 0 0
50 0 5 0.006494080603734538 2.8710000000000004 6.754 28.366000000000003 0 0 0
14 0 5 -0.1597053405729388 4.412000000000001 5.936 26.087000000000003 0 0 0
51 0 5 0.006797096747635118 5.962 6.939 28.268 0 0 0
15 0 5 -0.1856102912325727 7.405 5.694 25.847 0 0 0
16 0 5 -0.1137443504311457 10.179 5.969 25.95 0 0 0
45 0 5 0.00345557227647661 7.36 4.27 28.388 0 0 0
46 0 5 0.003670665154223921 10.313 4.279 28.316 0 0 0
52 0 5 0.005284892215543723 8.849 6.888 28.307000000000002 0 0 0
17 0 5 -0.0624369135344989 13.149 6.072 25.592000000000006 0 0 0
53 0 5 0.003930874495619722 11.841 6.813 28.301000000000002 0 0 0
18 0 5 -0.07817868915274699 16.06 5.877 26.01 0 0 0
48 0 5 0.005579891392495131 16.08 4.23 28.346 0 0 0
49 0 5 0.004097966065635805 17.5509588515 6.853 28.426000000000002 0 0 0
54 0 5 0.004359533913663701 14.696 6.857 28.354000000000003 0 0 0
19 0 5 -0.1616816388032129 0.161 8.664 25.966 0 0 0
20 0 5 -0.1873357017884586 3.0570000000000004 8.369 25.892000000000003 0 0 0
25 0 5 -0.2270598630098327 1.532 11.18 25.965000000000003 0 0 0
55 0 5 0.006175083378657254 1.422 9.315 28.277000000000005 0 0 0
21 0 5 -0.2329719535662337 5.980000000000001 8.346 25.682000000000002 0 0 0
26 0 5 -0.1806473626048075 4.5920000000000005 10.899 26.113000000000003 0 0 0
22 0 5 -0.1361876083627041 8.798 8.645 25.907 0 0 0
27 0 5 -0.1991847698432265 7.474000000000001 11.008 25.810000000000002 0 0 0
28 0 5 -0.1715528501514654 10.437 10.942 25.860000000000003 0 0 0
57 0 5 0.007935936378401585 7.213 9.394 28.288000000000004 0 0 0
23 0 5 -0.1179000184518157 11.943 8.453 25.748 0 0 0
29 0 5 -0.1739556133138201 13.297000000000002 10.944 25.974000000000004 0 0 0
59 0 5 0.005802901671618503 13.12 9.284 28.393 0 0 0
24 0 5 -0.1184044837382932 14.916 8.46 25.892000000000003 0 0 0
30 0 5 -0.1607213397167014 16.205 11.161 26.075 0 0 0
31 0 5 -0.147506137323742 0.032 13.7 25.829 0 0 0
32 0 5 -0.1513424591473853 2.9640000000000004 13.66 26.201000000000004 0 0 0
61 0 5 0.006140502096124484 0.019 11.884 28.412000000000003 0 0 0
62 0 5 0.004668194988369564 3.0800000000000005 11.788 28.288000000000004 0 0 0
33 0 5 -0.2129426525927663 5.824000000000001 13.656 25.945 0 0 0
63 0 5 0.006188794386364695 6.021000000000001 11.892 28.336000000000002 0 0 0
34 0 5 -0.1737135026213054 8.75 13.499 25.946 0 0 0
64 0 5 0.006757164578027474 8.948 11.813 28.374000000000002 0 0 0
70 0 5 0.006373285276148215 10.357000000000001 14.35 28.354000000000003 0 0 0
35 0 5 -0.1352081809202565 11.697 13.4 26.054000000000002 0 0 0