ITEM: TIMESTEP
0
ITEM: NUMBER OF ATOMS
592
ITEM: BOX BOUNDS pp pp ff
0.0000000000000000e+00 1.7606958851500000e+01
0.0000000000000000e+00 1.5248073648800000e+01
0.0000000000000000e+00 3.1980000000000000e+01
ITEM: ATOMS id element xu yu zu fx fy fz q
1 Au                1.641                0.907               25.871   0.0175448502835653   0.0255730695034411   -0.145041701586315   -0.113098528463135
2 Au                4.468                0.823               25.828  0.00572798606830897 -0.00667679552964142   -0.301736063278453     -0.1644190420399
3 Au                 7.34                0.806               26.137 -0.00266001382307104  -0.0207450934487005   -0.184600904485454    -0.12427958184587
4 Au               10.208                0.687               25.712  -0.0576112596841828  -0.0219101054377782  -0.0699472239999695  -0.0766644021400334
5 Au               13.118                0.788               25.911   0.0522185295532458   -0.016457467644153  -0.0721188839674815  -0.0711100016946589
6 Au               16.208                1.084               26.102 -7.9194141625518e-05  0.00597482829158127  -0.0548657599174632  -0.0680334876333037
7 Au        17.5029588515                3.513               25.966   0.0342545148038522  0.00433239157516281   -0.168097648576763   -0.122497709051924
8 Au                 2.86                3.189               26.075 -0.000701176250084562   0.0919754173070185    -0.40027209237093   -0.187185367337843
9 Au                5.817                3.228               25.932  -0.0237665081333915   0.0344390047669866   -0.324310114396786   -0.171856188997974
10 Au                9.181                3.288               25.984  -0.0326460880924092   0.0199106523094255  -0.0738952361569693  -0.0840259520253699
11 Au               11.978                3.536               25.942 6.16849820473626e-05  2.7432005664386e-05 2.96298845333187e-05 -0.000454711970857886
12 Au               14.755                3.415               26.078  0.00421621978641762 -0.00648912758771125  -0.0325711442456478  -0.0519429450097181
13 Au                1.439                5.849               25.954   0.0522761384790682  -0.0303540651691923   -0.367498830548669   -0.185785847310142
14 Au                4.412                5.936               26.087 -0.00229320085135867  -0.0388231715322431   -0.273207395051158   -0.159705340572939
15 Au                7.405                5.694               25.847  -0.0065791496973902  -0.0228026665856253   -0.360406050061537   -0.185610291232573
16 Au               10.179                5.969                25.95  -0.0120008862273015 -0.000517600206723617   -0.155375891688934   -0.113744350431146
17 Au               13.149                6.072               25.592  -0.0100328354846508   0.0107057828547065  -0.0384224771397641  -0.0624369135344989
18 Au                16.06                5.877                26.01    0.022786792142785  0.00765545055564975   -0.069963211778816   -0.078178689152747
19 Au                0.161                8.664               25.966   0.0162442493620031   0.0165298574048308   -0.284842195864284   -0.161681638803213
20 Au                3.057                8.369               25.892  -0.0061900489558412   0.0546500142526151   -0.372783583937414   -0.187335701788459
21 Au                 5.98                8.346               25.682  -0.0295606803024103  -0.0190984128558306   -0.573676825049123   -0.232971953566234
22 Au                8.798                8.645               25.907  -0.0156972686659274   0.0105058790580957   -0.215581213322717   -0.136187608362704
23 Au               11.943                8.453               25.748 -0.00271466376106042   0.0305176626292698    -0.14923300123733   -0.117900018451816
24 Au               14.916                 8.46               25.892   0.0170775019432331   0.0347180963497581   -0.153852200335691   -0.118404483738293
25 Au                1.532                11.18               25.965   0.0145253530921301   0.0225359871508073   -0.550981283194094   -0.227059863009833
26 Au                4.592               10.899               26.113  -0.0398039757899697   0.0264987258210782   -0.361379539554267   -0.180647362604808
27 Au                7.474               11.008                25.81  -0.0155042734099539   0.0207323189747456   -0.431606697240391   -0.199184769843227
28 Au               10.437               10.942                25.86 -0.00342743058696054   0.0309589379196278   -0.327859657546916   -0.171552850151465
29 Au               13.297               10.944               25.974 0.000651463152646218   0.0458800207960951   -0.351930961785795    -0.17395561331382
30 Au               16.205               11.161               26.075   0.0153536533672242 -0.00132105672178723   -0.296765522415178   -0.160721339716701
31 Au                0.032                 13.7               25.829    0.026407828281272  -0.0980461943517798   -0.227667423489563   -0.147506137323742
32 Au                2.964                13.66               26.201   0.0503627742184628  -0.0593270239107681   -0.276212314746057   -0.151342459147385
33 Au                5.824               13.656               25.945   0.0265165319604478  -0.0327213499559836   -0.490988973267214   -0.212942652592766
34 Au                 8.75               13.499               25.946  -0.0324616957408324 -0.00502565273295258   -0.329089784039833   -0.173713502621305
35 Au               11.697                 13.4               26.054  0.00251576068523198  -0.0431770851991366   -0.220151879592175   -0.135208180920256
36 Au               14.652                13.48               26.111  -0.0142734039707613   -0.024070640404174   -0.109937900961741   -0.099830416881096
37 Au        17.5209588515                1.687               28.455 -2.00005630852533e-06 1.34795596631885e-05 -0.000183429519373213  0.00444835679779739
38 Au                2.958                1.601               28.469 5.79540716544004e-06 9.99649599266129e-05 -0.000742586817871642  0.00840570704512199
39 Au                5.724                1.703               28.333 -2.32868789555339e-05 2.92103796770653e-06 -0.000717143167961339   0.0084824915404726
40 Au                8.953                1.691               28.373 -2.31987789315381e-05 -1.01311314001983e-05 -0.000149596832543574  0.00411357130871681
41 Au               11.778                1.565               28.415 -1.09247050070636e-05 -8.09934999070158e-05 -0.000283487188818419   0.0048174863591728
42 Au                14.51                1.687               28.378 1.15321434303977e-05 8.31157898244079e-06 -2.92613156302906e-05  0.00209259642611539
43 Au                 1.57                4.259               28.504 -2.00861333209343e-05 -2.95384073466231e-05 -0.000162295598572889   0.0045334239168398
44 Au                4.412                 4.29               28.474 1.68257046831775e-05 -2.72245051502218e-05 -8.59586538612963e-05  0.00371012622429672
45 Au                 7.36                 4.27               28.388 -4.15036709940705e-05 4.68066099479682e-05 -8.90674646254224e-05  0.00345557227647661
46 Au               10.313                4.279               28.316 -3.6993717294253e-05 1.68033153296807e-05 -0.00013134050708482  0.00367066515422392
47 Au               13.264                4.282               28.462   1.724920840569e-05 2.03645351356373e-06 -2.88732705424419e-05  0.00165793821508481
48 Au                16.08                 4.23               28.346 5.26815243992945e-05 -1.15002545326303e-05 -0.000310135240673853  0.00557989139249513
49 Au        17.5509588515                6.853               28.426 5.33724380260698e-05 -6.55590153137684e-06 -0.000135023436399688   0.0040979660656358
50 Au                2.871                6.754               28.366 6.17629250924455e-05 8.32658895800928e-05 -0.000386762575609538  0.00649408060373454
51 Au                5.962                6.939               28.268 -9.06006199194406e-05 6.06351918907101e-05 -0.000394758041848838  0.00679709674763512
52 Au                8.849                6.888               28.307  1.6790764822943e-05 -6.8450089439551e-06 -0.000239348979066483  0.00528489221554372
53 Au               11.841                6.813               28.301 -3.35248880420602e-05 2.56476181118327e-05 -0.000150299683003248  0.00393087449561972
54 Au               14.696                6.857               28.354 2.58694507894572e-05 2.17568391523553e-05 -0.000205738486718913   0.0043595339136637
55 Au                1.422                9.315               28.277 -0.000125964171671999 1.10643027019653e-05 -0.000304864680620965  0.00617508337865725
56 Au                4.277                9.337               28.538 5.54294551425372e-05 1.39685982159414e-05 -0.000349956761180793  0.00588405907517849
57 Au                7.213                9.394               28.288 2.63907340821981e-05 4.66133273956328e-05 -0.000605855186380476  0.00793593637840159
58 Au               10.284                9.388               28.503 -4.18396962418951e-05 6.19951791536203e-05 -0.000318962954826823  0.00551893720155928
59 Au                13.12                9.284               28.393 -5.85709612312713e-06 9.75191489377317e-05 -0.00034757556716283   0.0058029016716185
60 Au               16.091                9.286               28.447 2.84763508054402e-05 4.17150098428828e-05 -0.000242563339361575  0.00519830442895859
61 Au                0.019               11.884               28.412 2.78839569109956e-06 -0.000102792342108731 -0.000304761450106424  0.00614050209612448
62 Au                 3.08               11.788               28.288 -7.66389937353409e-05 1.09457337305608e-05 -7.22172939718577e-05  0.00466819498836956
63 Au                6.021               11.892               28.336 -2.84006997556325e-05 -6.47465785093398e-05 -0.000304588109516641  0.00618879438636469
64 Au                8.948               11.813               28.374 -2.7853086806651e-05 -1.30986721343027e-05 -0.000429143985291949  0.00675716457802747
65 Au               11.818               11.813               28.492 -1.5204524856276e-05 -1.90916436618638e-05 -0.000366692943774733  0.00605217959414698
66 Au               14.595               11.804               28.351 3.79100257092022e-05 -8.00349208704544e-05 -0.000394264386865308  0.00666434273750286
67 Au                1.412               14.474                28.55 0.000120067429169028 -2.23334724013112e-05 -0.000473002199580915  0.00674252632314882
68 Au                4.502               14.383               28.572 -2.61362644456638e-05 1.42662756523216e-05 -0.000535771001172833   0.0071743589942758
69 Au                7.328               14.397               28.462 -5.39173762011548e-05 2.53454865015034e-05 -0.000358791356763574  0.00625026152741952
70 Au               10.357                14.35               28.354 7.08029452276614e-05 -7.57534580543399e-05 -0.000394179323156069  0.00637328527614821
71 Au               13.137               14.408               28.295 -8.87465553023409e-05 -3.08090558039868e-05 -0.000212639190660143  0.00496873896390352
72 Au               16.218               14.516               28.286 4.87478781065691e-05 -4.1314678507338e-05 -0.000243619636501966  0.00509681100845919
73 Au                    0                    0               30.782 1.78172736317309e-07 -9.68516936439062e-08 -7.64715765636053e-07 -0.000245125572711432
74 Au                2.934                    0               30.782 2.52421276397884e-08  3.1758982841185e-07 -4.6659817405648e-07 -0.000217814701162792
75 Au                5.869                    0               30.782 -2.64046993565569e-07 -8.98947174829493e-08 -6.35321241148941e-07 -0.000229450044277428
76 Au                8.803                    0               30.782 4.86503086271366e-08 -6.36550694090083e-08 -1.99506681944873e-07 -0.000122569958724577
77 Au               11.738                    0               30.782 -4.57835370526539e-08  8.1344321915222e-08 -4.08568497806616e-07 -0.000180299270462855
78 Au               14.672                    0               30.782 -6.12455510820206e-09 -6.93382767148482e-09 -1.62365910637467e-07 -0.000105666785763058
79 Au                1.467                2.541               30.782 3.29742156532352e-08 -6.70264336955619e-08 -5.6806297225117e-08 -7.68637171996611e-05
80 Au                4.402                2.541               30.782 2.85569789109275e-08 -2.56881030835936e-07 -3.09044887975456e-07 -0.000158232038629453
81 Au                7.336                2.541               30.782 -1.70725636785706e-08 7.09180269014926e-09 -4.80824785500628e-08 -5.40768330711421e-05
82 Au               10.271                2.541               30.782 7.97284757705551e-08 -5.47932273756721e-08 -2.82674896392675e-07 -0.000159727704769802
83 Au               13.205                2.541               30.782 -1.13585966015273e-07 -5.34069256575081e-08 -2.67756436410438e-07 -0.000145510774439527
84 Au                16.14                2.541               30.782 1.86649174938598e-08 1.13599131504092e-08 -4.46742999075995e-08 -5.68916574914904e-05
85 Au                    0                5.083               30.782 -1.08316625461107e-08 1.46644094180517e-09 -3.83391365058547e-08 -4.24131906156082e-05
86 Au                2.934                5.083               30.782 -6.68587604930186e-08 3.65739076260602e-08 -2.59493401588748e-07 -0.00011631638287933
87 Au                5.869                5.083               30.782 -1.41362726521348e-09 -2.39766843094955e-10 2.34530789533169e-09 6.73251302438227e-06
88 Au                8.803                5.083               30.782 2.15952373024908e-09 -6.89020425148439e-09 -5.85144186341999e-08 -5.21063711958667e-05
89 Au               11.738                5.083               30.782 1.20718097697513e-08 -2.30900931811093e-08 -2.0255117407652e-07 -0.000121089857731248
90 Au               14.672                5.083               30.782 4.20361505204961e-08 2.87112963465622e-08 -1.9737229113845e-07 -0.000125133305176873
91 Au                1.467                7.624               30.782 4.90039470603401e-08 -3.54141719785892e-09 -1.92380832739161e-07 -0.000102154759136051
92 Au                4.402                7.624               30.782 -1.29891751974768e-08 7.58059976317941e-08 -7.71756198820897e-08 -8.08989124271423e-05
93 Au                7.336                7.624               30.782 -6.09451555711646e-08 5.62595757602268e-08 -4.3199048029644e-07 -0.000168586154960476
94 Au               10.271                7.624               30.782 4.44728961603031e-09 8.41030484449574e-08 -2.28668968732963e-07 -0.000126907584822854
95 Au               13.205                7.624               30.782 1.27638370628753e-08 7.37323820114729e-08 -6.02714873738314e-07 -0.000215319053237544
96 Au                16.14                7.624               30.782 -5.57136598452671e-08 1.72958791689994e-08 -4.10797194919462e-07 -0.000164787637581159
97 Au                    0               10.165               30.782 -1.17172402937117e-09 -1.24625940468627e-09 -7.74610971457077e-09 -8.52979695007425e-06
98 Au                2.934               10.165               30.782 9.27596827079079e-08 -1.35283393207404e-07 -2.87977582052395e-07 -0.000112425630342343
99 Au                5.869               10.165               30.782 5.54805257386192e-08  -7.231189053952e-08 -1.38153252685921e-07 -0.000106660393843398
100 Au                8.803               10.165               30.782 4.34352883854826e-08 1.96635406858171e-08 -3.36998034848226e-07 -0.000159272092814158
101 Au               11.738               10.165               30.782 -3.44806620541147e-08 -1.60836575902648e-08 -6.7245532658936e-07 -0.000228376267763996
102 Au               14.672               10.165               30.782 -3.98976928158924e-08 -3.04666018049873e-08 -2.55341717926869e-07 -0.000126837086415327
103 Au                1.467               12.707               30.782 2.93012887965192e-08 -1.71624391174728e-08 3.48650836144223e-09 1.85489614313726e-05
104 Au                4.402               12.707               30.782  8.2556590361334e-08 6.96433104660667e-08 -1.09722442436806e-07 -7.01282578597904e-05
105 Au                7.336               12.707               30.782 -2.35097658622727e-08 4.35009508081633e-08 -4.63925175113164e-07 -0.000174202587062935
106 Au               10.271               12.707               30.782 -2.93121401041722e-08 -5.12202529074116e-08 -3.86987304544017e-07 -0.000172762399050843
107 Au               13.205               12.707               30.782 -5.04017034730235e-08 -1.11423536211992e-07 -4.37432443494937e-07 -0.000172430065991462
108 Au                16.14               12.707               30.782 1.70566724011889e-08 1.45408661479441e-08 -2.87270368368293e-08 -5.32334125870402e-05
109 Au                1.467                0.847                1.198 -6.80642075794196e-08 -1.76999876955349e-07   3.745765423442e-07 -0.000166576032996909
110 Au                4.402                0.847                1.198 2.59542224440054e-08  1.1581916693545e-07  1.8500113701792e-07 -0.000103227613033401
111 Au                7.336                0.847                1.198 1.01919696349009e-08 1.32760420180786e-07 8.66350579436598e-08 -7.79498657117461e-05
112 Au               10.271                0.847                1.198 6.52923509131542e-08 7.38755031875361e-08 2.91716500739912e-08 -6.81400788221896e-05
113 Au               13.205                0.847                1.198 -2.29320236211668e-07 -1.09293945515082e-07 4.64724865304402e-07 -0.000185909541648968
114 Au                16.14                0.847                1.198 1.01181848679159e-07 -6.6464318505389e-08 4.10205591156767e-07 -0.000170431355925755
115 Au                    0                3.388                1.198 -6.07572795537211e-08 -7.58184495909374e-09 2.13009837920479e-07 -0.000120247164196131
116 Au                2.934                3.388                1.198 8.28693134838224e-08 1.46026629643485e-07 3.67351570942454e-07 -0.000158440831098627
117 Au                5.869                3.388                1.198 -1.09903653624924e-07 -1.48490691805761e-07 1.06254408787429e-06 -0.000285172774471657
118 Au                8.803                3.388                1.198 -4.95641285683911e-08 -1.09442238033344e-07 2.59595549467953e-07 -0.000148841498543079
119 Au               11.738                3.388                1.198 -1.36361514432336e-08 -1.04195841282178e-08 1.62983180393524e-08 -4.53713102482774e-05
120 Au               14.672                3.388                1.198 1.74943162310177e-07 8.80797014889106e-08 2.75055233747621e-07 -0.000129750771265249
121 Au                1.467                 5.93                1.198 -2.94156041386971e-08 5.08417470555618e-08 1.19034609603749e-08    3.56827299107e-05
122 Au                4.402                 5.93                1.198 -1.09800689061017e-07 -5.57410263405893e-08 6.83319780590781e-07 -0.000225471502734591
123 Au                7.336                 5.93                1.198 1.10094732570471e-07 6.86194109724651e-08 1.01443416343557e-06 -0.000265687038247935
124 Au               10.271                 5.93                1.198 -3.36513130524536e-08 2.99734896154085e-08 7.57079000743916e-07 -0.000228406391114327
125 Au               13.205                 5.93                1.198 -1.13627067500263e-08 2.61549510876345e-08 5.55554832990006e-07 -0.000185269958780213
126 Au                16.14                 5.93                1.198 -9.29813315591251e-08 -4.9588060353872e-09 1.83539567563452e-07 -0.000101683207155678
127 Au                    0                8.471                1.198 4.33314027244862e-08 -2.93511676132691e-08 1.11170639492956e-08 4.51162725334173e-05
128 Au                2.934                8.471                1.198 2.38857614255378e-08 -4.38144687246708e-10 3.06303451899122e-09 -1.8296185732028e-05
129 Au                5.869                8.471                1.198 -5.93633536759808e-08 8.77247282686606e-08  6.2402409113951e-07 -0.000214728345553444
130 Au                8.803                8.471                1.198 -1.19519760005452e-07 -2.84072129522653e-08 5.07154721970819e-07 -0.000189544588557565
131 Au               11.738                8.471                1.198 -9.03262705248838e-09 -7.59494932456834e-08  3.0124491614477e-07 -0.000126799424536061
132 Au               14.672                8.471                1.198 1.58855969572296e-08 -1.04852799627551e-08 2.19261794831888e-07 -0.000111860268865208
133 Au                1.467               11.012                1.198 -4.41339854961743e-08 5.63754232683496e-08 4.04261060165162e-07 -0.000153504447691348
134 Au                4.402               11.012                1.198 -1.06319290976709e-08  1.4782803220877e-08 1.69182465895736e-09 1.59197949692758e-05
135 Au                7.336               11.012                1.198 5.67788264660522e-08 -2.21827968910718e-08 5.33114228513104e-07 -0.000201333055399123
136 Au               10.271               11.012                1.198 -7.7400625345638e-08 5.07737669096023e-08 1.32307893680125e-07 -9.26272125195554e-05
137 Au               13.205               11.012                1.198 -6.18416671021024e-08 3.41397736167221e-08 3.23449678019423e-07 -0.000133506428019185
138 Au                16.14               11.012                1.198 3.53057215742384e-08 -2.10841023644067e-08 2.86289248869989e-07 -0.00013590616399977
139 Au                    0               13.554                1.198 9.92077405469644e-09  4.1005223464156e-08 5.91939984280383e-07 -0.000221152677228992
140 Au                2.934               13.554                1.198 -2.25011961634741e-08  1.3264631423194e-10 9.72324663307881e-09 -1.51619329492488e-05
141 Au                5.869               13.554                1.198 1.24700803567084e-08 -1.47797004692394e-08 2.80404664358062e-08 -1.90810876007225e-05
142 Au                8.803               13.554                1.198 6.49193470137085e-09 -1.21667687040635e-07 1.42297572796323e-07 -7.81369061467318e-05
143 Au               11.738               13.554                1.198  1.3451615003458e-08 -5.01582883717893e-09 1.73378973869633e-07 -0.000110383023417765
144 Au               14.672               13.554                1.198 3.35397335517753e-08 3.75256236578084e-08 2.09406073829494e-07 -0.000126084849948249
145 Au                0.037                1.727                3.523  6.8578290690124e-06 8.89353017613713e-05 0.000210366782377867  0.00468913498039493
146 Au                3.046                  1.6                3.614 -6.44133394139153e-06 0.000109209637469669 0.000150663582632862   0.0043550564084213
147 Au                5.838                1.796                3.513  7.6820015637769e-06 -4.05001137081818e-05 0.000541063104531654  0.00701839191506224
148 Au                8.816                1.754                3.388  8.9658607181613e-05 -4.75782892665259e-05 0.000505682140201709  0.00706739170708013
149 Au               11.773                1.634                3.404 -1.53786467860887e-05 7.62327592035925e-05 0.000575468070897078   0.0073865972355352
150 Au                14.67                1.783                3.607 -4.38271560357037e-05 1.76697620374577e-05 7.41604157177163e-05  0.00348877777144452
151 Au                1.552                4.216                3.572 4.70777146699019e-05 -3.47698258556286e-05 0.000427680177929471   0.0066539353268537
152 Au                 4.35                4.176                3.609 3.33674804119726e-06 -1.04192885446213e-05 0.000529114502437029  0.00699101715620453
153 Au                7.268                4.275                3.509 4.95750733126343e-05 -1.61454101319121e-05 0.000166828713372098  0.00413830573162109
154 Au               10.295                4.282                  3.7 4.12314730181897e-05 -0.000116469131062582 0.000519824468172441  0.00792516019669924
155 Au               13.137                4.338                3.688 -8.44166651739038e-05 -7.81874448705189e-05 0.000293377716754921  0.00628302224966862
156 Au                16.03                4.042                3.476 3.00823815340574e-05 4.34587645821157e-05 0.000400141602789449  0.00614389432252691
157 Au        17.5179588515                6.804                 3.63 5.76531872446424e-05  1.8940980145059e-05  0.00011430491236457  0.00471582288054779
158 Au                3.074                 6.76                3.403 -8.71743102569031e-05 3.92431863138671e-05 0.000233319113763272  0.00510492124844263
159 Au                5.952                6.798                3.649 -7.22139850349985e-05 9.49587144719963e-05 0.000239575727291655  0.00511494753059105
160 Au                8.764                6.692                3.525 7.32846323186962e-05 6.11916301061448e-05 0.000520347891973719  0.00691706726034929
161 Au               11.735                6.794                3.633 3.87779351738033e-05 -8.35018874090935e-06 0.000658949779183575  0.00815600788221844
162 Au               14.708                6.729                3.541 -2.43007967246672e-05 -1.77831858993552e-06 0.000445426589946647   0.0068469291646839
163 Au                1.592                9.359                 3.52 3.13306740206905e-05 -5.72070874904363e-05 0.000153997141547802  0.00464469649686911
164 Au                 4.55                9.229                3.598 -1.78320927053223e-05 6.35003860681985e-05 0.000589715856477914  0.00778675012944646
165 Au                7.445                9.349                3.665 2.31271653364135e-06 3.45383509361202e-06 0.000726469919293678  0.00851021251837089
166 Au               10.271                9.322                3.668 2.87774495497258e-06 0.000101173746113771 0.000275660278354078  0.00599508741410436
167 Au               13.227                9.311                 3.55 -1.16787243089119e-05 -5.15152328718954e-05 0.000239033175320093  0.00530522978053418
168 Au               16.136                9.432                3.544 1.59644243581734e-05 -2.0993926502946e-05 0.000289007920090854    0.005537215102071
169 Au                 0.07               11.971                3.572 1.23940439737458e-05 1.71789859166814e-05 0.000281476184610445  0.00517322905429711
170 Au                2.874               11.904                 3.64 0.000149086798690226 7.81434025241544e-06 0.000186361587056192  0.00510388147121324
171 Au                5.883                11.81                3.485 -4.87389057579238e-05 -5.85423520957206e-05  0.00025552822562419  0.00534745546287202
172 Au                 8.93               11.891                3.513 3.41781932188569e-05 -4.0175814381809e-05  0.00058875043614923  0.00746871708952883
173 Au               11.957               11.875                 3.45 -5.08624132072493e-05 -3.35702340184034e-06 0.000245025449391154  0.00506277084688622
174 Au               14.758               12.051                3.668 -9.05250832021995e-06 1.56297890405713e-06 0.000165943588028917  0.00453898311708003
175 Au                1.531               14.473                3.511 2.16795295260885e-05 -3.67411803093243e-05 0.000281834036588635  0.00497337474717231
176 Au                4.554               14.332                3.623 -7.07822276347324e-06 -8.15907843249238e-06 -1.24187975940332e-05  0.00126472003380899
177 Au                7.437               14.428                3.639 4.21310656032779e-05 6.10818416059887e-05 6.32312664784683e-05  0.00367378759060817
178 Au               10.403               14.336                3.532 -3.7754469600425e-05 4.20487218381229e-05 7.72723864882088e-05  0.00362165934139626
179 Au               13.366               14.573                3.573 4.19120387867567e-05 -4.37519576572099e-05 0.000252744880666806  0.00507711305607509
180 Au                16.26               14.454                3.502 1.89639956494829e-06 -7.26513142300988e-06 0.000232217089770191   0.0045558513623334
181 Au        17.4809588515        15.0450736488                6.032   0.0014705429249989   0.0198315207193989   0.0740443372512819  -0.0817552599676906
182 Au                2.739        14.8600736488                 5.93   0.0343870750154169  0.00335646261611636    0.132751518780396   -0.115540529730188
183 Au                5.936                0.133                 5.91    -0.01498768985301  -0.0447224464781162    0.194984679437193   -0.134810875787895
184 Au                8.986                0.108                5.886   0.0173305602703346  -0.0361159630508216    0.255552211911173   -0.149649214966555
185 Au               11.675                0.317                6.168   -0.039219653554328  -0.0226312572276782    0.282491010781683   -0.167716292810858
186 Au               14.643        15.1720736488                6.097  -0.0294871444509478   0.0265794645899376    0.193411955242765   -0.135127773183609
187 Au                1.633                2.358                5.927   0.0319454810628071  -0.0237427379172952    0.213289462468219   -0.136646613386384
188 Au                 4.39                2.299                 5.96  -0.0198619379757633   -0.010424728378632    0.219641516012389   -0.137665176295092
189 Au                7.264                2.379                6.027  0.00742135074214106  0.00855749824092008    0.136254545254051    -0.11161415163483
190 Au               10.161                2.627                5.832 -0.000311478347732708  0.00521338947173345    0.236787661549872   -0.137204015193929
191 Au               13.161                2.599                5.815   0.0413624878127827   0.0139533029592239    0.281894439920204   -0.154425093208384
192 Au               16.287                2.556                6.147   -0.045941120549253 -0.00628561490202868    0.408715204004695   -0.194379207078022