# vtk DataFile Version 3.0
FrameWeb3 VTK Output
ASCII
DATASET UNSTRUCTURED_GRID
POINTS 155 float
0.0 0.0 0.0
5.0 0.0 0.0
10.0 0.0 0.0
15.0 0.0 0.0
20.0 0.0 0.0
25.0 0.0 0.0
30.0 0.0 0.0
35.0 0.0 0.0
40.0 0.0 0.0
45.0 0.0 0.0
50.0 0.0 0.0
55.0 0.0 0.0
60.0 0.0 0.0
65.0 0.0 0.0
70.0 0.0 0.0
75.0 0.0 0.0
80.0 0.0 0.0
85.0 0.0 0.0
90.0 0.0 0.0
95.0 0.0 0.0
100.0 0.0 0.0
0.0 5.0 0.0
5.0 5.0 0.0
10.0 5.0 0.0
15.0 5.0 0.0
20.0 5.0 0.0
25.0 5.0 0.0
30.0 5.0 0.0
35.0 5.0 0.0
40.0 5.0 0.0
45.0 5.0 0.0
50.0 5.0 0.0
55.0 5.0 0.0
60.0 5.0 0.0
65.0 5.0 0.0
70.0 5.0 0.0
75.0 5.0 0.0
80.0 5.0 0.0
85.0 5.0 0.0
90.0 5.0 0.0
95.0 5.0 0.0
100.0 5.0 0.0
0.0 10.0 0.0
5.0 10.0 0.0
10.0 10.0 0.0
15.0 10.0 0.0
20.0 10.0 0.0
25.0 10.0 0.0
30.0 10.0 0.0
35.0 10.0 0.0
40.0 10.0 0.0
45.0 10.0 0.0
50.0 10.0 0.0
55.0 10.0 0.0
60.0 10.0 0.0
65.0 10.0 0.0
70.0 10.0 0.0
75.0 10.0 0.0
80.0 10.0 0.0
85.0 10.0 0.0
90.0 10.0 0.0
95.0 10.0 0.0
100.0 10.0 0.0
0.0 15.0 0.0
5.0 15.0 0.0
10.0 15.0 0.0
15.0 15.0 0.0
20.0 15.0 0.0
25.0 15.0 0.0
30.0 15.0 0.0
35.0 15.0 0.0
40.0 15.0 0.0
45.0 15.0 0.0
50.0 15.0 0.0
55.0 15.0 0.0
60.0 15.0 0.0
65.0 15.0 0.0
70.0 15.0 0.0
75.0 15.0 0.0
80.0 15.0 0.0
85.0 15.0 0.0
90.0 15.0 0.0
95.0 15.0 0.0
100.0 15.0 0.0
0.0 20.0 0.0
5.0 20.0 0.0
10.0 20.0 0.0
15.0 20.0 0.0
20.0 20.0 0.0
25.0 20.0 0.0
30.0 20.0 0.0
35.0 20.0 0.0
40.0 20.0 0.0
45.0 20.0 0.0
50.0 20.0 0.0
55.0 20.0 0.0
60.0 20.0 0.0
65.0 20.0 0.0
70.0 20.0 0.0
75.0 20.0 0.0
80.0 20.0 0.0
85.0 20.0 0.0
90.0 20.0 0.0
95.0 20.0 0.0
100.0 20.0 0.0
80.0 25.0 0.0
85.0 25.0 0.0
90.0 25.0 0.0
95.0 25.0 0.0
100.0 25.0 0.0
80.0 30.0 0.0
85.0 30.0 0.0
90.0 30.0 0.0
95.0 30.0 0.0
100.0 30.0 0.0
80.0 35.0 0.0
85.0 35.0 0.0
90.0 35.0 0.0
95.0 35.0 0.0
100.0 35.0 0.0
80.0 40.0 0.0
85.0 40.0 0.0
90.0 40.0 0.0
95.0 40.0 0.0
100.0 40.0 0.0
80.0 45.0 0.0
85.0 45.0 0.0
90.0 45.0 0.0
95.0 45.0 0.0
100.0 45.0 0.0
80.0 50.0 0.0
85.0 50.0 0.0
90.0 50.0 0.0
95.0 50.0 0.0
100.0 50.0 0.0
80.0 55.0 0.0
85.0 55.0 0.0
90.0 55.0 0.0
95.0 55.0 0.0
100.0 55.0 0.0
80.0 60.0 0.0
85.0 60.0 0.0
90.0 60.0 0.0
95.0 60.0 0.0
100.0 60.0 0.0
80.0 65.0 0.0
85.0 65.0 0.0
90.0 65.0 0.0
95.0 65.0 0.0
100.0 65.0 0.0
80.0 70.0 0.0
85.0 70.0 0.0
90.0 70.0 0.0
95.0 70.0 0.0
100.0 70.0 0.0
CELLS 0 0
CELL_TYPES 0
POINT_DATA 155
VECTORS displacement float
0.0 0.0 0.0
0.0 0.0 0.0
0.0 0.0 0.0
0.0 0.0 0.0
0.0 0.0 0.0
0.0 0.0 0.0
0.0 0.0 0.0
0.0 0.0 0.0
0.0 0.0 0.0
0.0 0.0 0.0
0.0 0.0 0.0
0.0 0.0 0.0
0.0 0.0 0.0
0.0 0.0 0.0
0.0 0.0 0.0
0.0 0.0 0.0
0.0 0.0 0.0
0.0 0.0 0.0
0.0 0.0 0.0
0.0 0.0 0.0
0.0 0.0 0.0
0.0 0.0 0.0
0.0 0.0 0.0
0.0 0.0 0.0
0.0 0.0 0.0
0.0 0.0 0.0
0.0 0.0 0.0
0.0 0.0 0.0
0.0 0.0 0.0
0.0 0.0 0.0
0.0 0.0 0.0
0.0 0.0 0.0
0.0 0.0 0.0
0.0 0.0 0.0
0.0 0.0 0.0
0.0 0.0 0.0
0.0 0.0 0.0
0.0 0.0 0.0
0.0 0.0 0.0
0.0 0.0 0.0
0.0 0.0 0.0
0.0 0.0 0.0
0.0 0.0 0.0
0.0 0.0 0.0
0.0 0.0 0.0
0.0 0.0 0.0
0.0 0.0 0.0
0.0 0.0 0.0
0.0 0.0 0.0
0.0 0.0 0.0
0.0 0.0 0.0
0.0 0.0 0.0
0.0 0.0 0.0
0.0 0.0 0.0
0.0 0.0 0.0
0.0 0.0 0.0
0.0 0.0 0.0
0.0 0.0 0.0
0.0 0.0 0.0
0.0 0.0 0.0
0.0 0.0 0.0
0.0 0.0 0.0
0.0 0.0 0.0
0.0 0.0 0.0
0.0 0.0 0.0
0.0 0.0 0.0
0.0 0.0 0.0
0.0 0.0 0.0
0.0 0.0 0.0
0.0 0.0 0.0
0.0 0.0 0.0
0.0 0.0 0.0
0.0 0.0 0.0
0.0 0.0 0.0
0.0 0.0 0.0
0.0 0.0 0.0
0.0 0.0 0.0
0.0 0.0 0.0
0.0 0.0 0.0
0.0 0.0 0.0
0.0 0.0 0.0
0.0 0.0 0.0
0.0 0.0 0.0
0.0 0.0 0.0
0.0 0.0 0.0
0.0 0.0 0.0
0.0 0.0 0.0
0.0 0.0 0.0
0.0 0.0 0.0
0.0 0.0 0.0
0.0 0.0 0.0
0.0 0.0 0.0
0.0 0.0 0.0
0.0 0.0 0.0
0.0 0.0 0.0
0.0 0.0 0.0
0.0 0.0 0.0
0.0 0.0 0.0
0.0 0.0 0.0
0.0 0.0 0.0
0.0 0.0 0.0
0.0 0.0 0.0
0.0 0.0 0.0
0.0 0.0 0.0
0.0 0.0 0.0
0.0 0.0 0.0
0.0 0.0 0.0
0.0 0.0 0.0
0.0 0.0 0.0
0.0 0.0 0.0
0.0 0.0 0.0
0.0 0.0 0.0
0.0 0.0 0.0
0.0 0.0 0.0
0.0 0.0 0.0
0.0 0.0 0.0
0.0 0.0 0.0
0.0 0.0 0.0
0.0 0.0 0.0
0.0 0.0 0.0
0.0 0.0 0.0
0.0 0.0 0.0
0.0 0.0 0.0
0.0 0.0 0.0
0.0 0.0 0.0
0.0 0.0 0.0
0.0 0.0 0.0
0.0 0.0 0.0
0.0 0.0 0.0
0.0 0.0 0.0
0.0 0.0 0.0
0.0 0.0 0.0
0.0 0.0 0.0
0.0 0.0 0.0
0.0 0.0 0.0
0.0 0.0 0.0
0.0 0.0 0.0
0.0 0.0 0.0
0.0 0.0 0.0
0.0 0.0 0.0
0.0 0.0 0.0
0.0 0.0 0.0
0.0 0.0 0.0
0.0 0.0 0.0
0.0 0.0 0.0
0.0 0.0 0.0
0.0 0.0 0.0
0.0 0.0 0.0
0.0 0.0 0.0
0.0 0.0 0.0
0.0 0.0 -20000000000000.0
0.0 0.0 -20000000000000.0
0.0 0.0 -20000000000000.0
0.0 0.0 -20000000000000.0
0.0 0.0 -20000000000000.0
CELL_DATA 0
SCALARS stress float 1
LOOKUP_TABLE default
