# vtk DataFile Version 3.0
FrameWeb3 VTK Output
ASCII
DATASET UNSTRUCTURED_GRID
POINTS 620 float
0.0 0.0 0.0
5.0 0.0 0.0
10.0 0.0 0.0
15.0 0.0 0.0
20.0 0.0 0.0
25.0 0.0 0.0
30.0 0.0 0.0
35.0 0.0 0.0
40.0 0.0 0.0
45.0 0.0 0.0
50.0 0.0 0.0
55.0 0.0 0.0
60.0 0.0 0.0
65.0 0.0 0.0
70.0 0.0 0.0
75.0 0.0 0.0
80.0 0.0 0.0
85.0 0.0 0.0
90.0 0.0 0.0
95.0 0.0 0.0
100.0 0.0 0.0
0.0 5.0 0.0
5.0 5.0 0.0
10.0 5.0 0.0
15.0 5.0 0.0
20.0 5.0 0.0
25.0 5.0 0.0
30.0 5.0 0.0
35.0 5.0 0.0
40.0 5.0 0.0
45.0 5.0 0.0
50.0 5.0 0.0
55.0 5.0 0.0
60.0 5.0 0.0
65.0 5.0 0.0
70.0 5.0 0.0
75.0 5.0 0.0
80.0 5.0 0.0
85.0 5.0 0.0
90.0 5.0 0.0
95.0 5.0 0.0
100.0 5.0 0.0
0.0 10.0 0.0
5.0 10.0 0.0
10.0 10.0 0.0
15.0 10.0 0.0
20.0 10.0 0.0
25.0 10.0 0.0
30.0 10.0 0.0
35.0 10.0 0.0
40.0 10.0 0.0
45.0 10.0 0.0
50.0 10.0 0.0
55.0 10.0 0.0
60.0 10.0 0.0
65.0 10.0 0.0
70.0 10.0 0.0
75.0 10.0 0.0
80.0 10.0 0.0
85.0 10.0 0.0
90.0 10.0 0.0
95.0 10.0 0.0
100.0 10.0 0.0
0.0 15.0 0.0
5.0 15.0 0.0
10.0 15.0 0.0
15.0 15.0 0.0
20.0 15.0 0.0
25.0 15.0 0.0
30.0 15.0 0.0
35.0 15.0 0.0
40.0 15.0 0.0
45.0 15.0 0.0
50.0 15.0 0.0
55.0 15.0 0.0
60.0 15.0 0.0
65.0 15.0 0.0
70.0 15.0 0.0
75.0 15.0 0.0
80.0 15.0 0.0
85.0 15.0 0.0
90.0 15.0 0.0
95.0 15.0 0.0
100.0 15.0 0.0
0.0 20.0 0.0
5.0 20.0 0.0
10.0 20.0 0.0
15.0 20.0 0.0
20.0 20.0 0.0
25.0 20.0 0.0
30.0 20.0 0.0
35.0 20.0 0.0
40.0 20.0 0.0
45.0 20.0 0.0
50.0 20.0 0.0
55.0 20.0 0.0
60.0 20.0 0.0
65.0 20.0 0.0
70.0 20.0 0.0
75.0 20.0 0.0
80.0 20.0 0.0
85.0 20.0 0.0
90.0 20.0 0.0
95.0 20.0 0.0
100.0 20.0 0.0
0.0 0.0 5.0
5.0 0.0 5.0
10.0 0.0 5.0
15.0 0.0 5.0
20.0 0.0 5.0
25.0 0.0 5.0
30.0 0.0 5.0
35.0 0.0 5.0
40.0 0.0 5.0
45.0 0.0 5.0
50.0 0.0 5.0
55.0 0.0 5.0
60.0 0.0 5.0
65.0 0.0 5.0
70.0 0.0 5.0
75.0 0.0 5.0
80.0 0.0 5.0
85.0 0.0 5.0
90.0 0.0 5.0
95.0 0.0 5.0
100.0 0.0 5.0
0.0 5.0 5.0
5.0 5.0 5.0
10.0 5.0 5.0
15.0 5.0 5.0
20.0 5.0 5.0
25.0 5.0 5.0
30.0 5.0 5.0
35.0 5.0 5.0
40.0 5.0 5.0
45.0 5.0 5.0
50.0 5.0 5.0
55.0 5.0 5.0
60.0 5.0 5.0
65.0 5.0 5.0
70.0 5.0 5.0
75.0 5.0 5.0
80.0 5.0 5.0
85.0 5.0 5.0
90.0 5.0 5.0
95.0 5.0 5.0
100.0 5.0 5.0
0.0 10.0 5.0
5.0 10.0 5.0
10.0 10.0 5.0
15.0 10.0 5.0
20.0 10.0 5.0
25.0 10.0 5.0
30.0 10.0 5.0
35.0 10.0 5.0
40.0 10.0 5.0
45.0 10.0 5.0
50.0 10.0 5.0
55.0 10.0 5.0
60.0 10.0 5.0
65.0 10.0 5.0
70.0 10.0 5.0
75.0 10.0 5.0
80.0 10.0 5.0
85.0 10.0 5.0
90.0 10.0 5.0
95.0 10.0 5.0
100.0 10.0 5.0
0.0 15.0 5.0
5.0 15.0 5.0
10.0 15.0 5.0
15.0 15.0 5.0
20.0 15.0 5.0
25.0 15.0 5.0
30.0 15.0 5.0
35.0 15.0 5.0
40.0 15.0 5.0
45.0 15.0 5.0
50.0 15.0 5.0
55.0 15.0 5.0
60.0 15.0 5.0
65.0 15.0 5.0
70.0 15.0 5.0
75.0 15.0 5.0
80.0 15.0 5.0
85.0 15.0 5.0
90.0 15.0 5.0
95.0 15.0 5.0
100.0 15.0 5.0
0.0 20.0 5.0
5.0 20.0 5.0
10.0 20.0 5.0
15.0 20.0 5.0
20.0 20.0 5.0
25.0 20.0 5.0
30.0 20.0 5.0
35.0 20.0 5.0
40.0 20.0 5.0
45.0 20.0 5.0
50.0 20.0 5.0
55.0 20.0 5.0
60.0 20.0 5.0
65.0 20.0 5.0
70.0 20.0 5.0
75.0 20.0 5.0
80.0 20.0 5.0
85.0 20.0 5.0
90.0 20.0 5.0
95.0 20.0 5.0
100.0 20.0 5.0
0.0 0.0 10.0
5.0 0.0 10.0
10.0 0.0 10.0
15.0 0.0 10.0
20.0 0.0 10.0
25.0 0.0 10.0
30.0 0.0 10.0
35.0 0.0 10.0
40.0 0.0 10.0
45.0 0.0 10.0
50.0 0.0 10.0
55.0 0.0 10.0
60.0 0.0 10.0
65.0 0.0 10.0
70.0 0.0 10.0
75.0 0.0 10.0
80.0 0.0 10.0
85.0 0.0 10.0
90.0 0.0 10.0
95.0 0.0 10.0
100.0 0.0 10.0
0.0 5.0 10.0
5.0 5.0 10.0
10.0 5.0 10.0
15.0 5.0 10.0
20.0 5.0 10.0
25.0 5.0 10.0
30.0 5.0 10.0
35.0 5.0 10.0
40.0 5.0 10.0
45.0 5.0 10.0
50.0 5.0 10.0
55.0 5.0 10.0
60.0 5.0 10.0
65.0 5.0 10.0
70.0 5.0 10.0
75.0 5.0 10.0
80.0 5.0 10.0
85.0 5.0 10.0
90.0 5.0 10.0
95.0 5.0 10.0
100.0 5.0 10.0
0.0 10.0 10.0
5.0 10.0 10.0
10.0 10.0 10.0
15.0 10.0 10.0
20.0 10.0 10.0
25.0 10.0 10.0
30.0 10.0 10.0
35.0 10.0 10.0
40.0 10.0 10.0
45.0 10.0 10.0
50.0 10.0 10.0
55.0 10.0 10.0
60.0 10.0 10.0
65.0 10.0 10.0
70.0 10.0 10.0
75.0 10.0 10.0
80.0 10.0 10.0
85.0 10.0 10.0
90.0 10.0 10.0
95.0 10.0 10.0
100.0 10.0 10.0
0.0 15.0 10.0
5.0 15.0 10.0
10.0 15.0 10.0
15.0 15.0 10.0
20.0 15.0 10.0
25.0 15.0 10.0
30.0 15.0 10.0
35.0 15.0 10.0
40.0 15.0 10.0
45.0 15.0 10.0
50.0 15.0 10.0
55.0 15.0 10.0
60.0 15.0 10.0
65.0 15.0 10.0
70.0 15.0 10.0
75.0 15.0 10.0
80.0 15.0 10.0
85.0 15.0 10.0
90.0 15.0 10.0
95.0 15.0 10.0
100.0 15.0 10.0
0.0 20.0 10.0
5.0 20.0 10.0
10.0 20.0 10.0
15.0 20.0 10.0
20.0 20.0 10.0
25.0 20.0 10.0
30.0 20.0 10.0
35.0 20.0 10.0
40.0 20.0 10.0
45.0 20.0 10.0
50.0 20.0 10.0
55.0 20.0 10.0
60.0 20.0 10.0
65.0 20.0 10.0
70.0 20.0 10.0
75.0 20.0 10.0
80.0 20.0 10.0
85.0 20.0 10.0
90.0 20.0 10.0
95.0 20.0 10.0
100.0 20.0 10.0
0.0 0.0 15.0
5.0 0.0 15.0
10.0 0.0 15.0
15.0 0.0 15.0
20.0 0.0 15.0
25.0 0.0 15.0
30.0 0.0 15.0
35.0 0.0 15.0
40.0 0.0 15.0
45.0 0.0 15.0
50.0 0.0 15.0
55.0 0.0 15.0
60.0 0.0 15.0
65.0 0.0 15.0
70.0 0.0 15.0
75.0 0.0 15.0
80.0 0.0 15.0
85.0 0.0 15.0
90.0 0.0 15.0
95.0 0.0 15.0
100.0 0.0 15.0
0.0 5.0 15.0
5.0 5.0 15.0
10.0 5.0 15.0
15.0 5.0 15.0
20.0 5.0 15.0
25.0 5.0 15.0
30.0 5.0 15.0
35.0 5.0 15.0
40.0 5.0 15.0
45.0 5.0 15.0
50.0 5.0 15.0
55.0 5.0 15.0
60.0 5.0 15.0
65.0 5.0 15.0
70.0 5.0 15.0
75.0 5.0 15.0
80.0 5.0 15.0
85.0 5.0 15.0
90.0 5.0 15.0
95.0 5.0 15.0
100.0 5.0 15.0
0.0 10.0 15.0
5.0 10.0 15.0
10.0 10.0 15.0
15.0 10.0 15.0
20.0 10.0 15.0
25.0 10.0 15.0
30.0 10.0 15.0
35.0 10.0 15.0
40.0 10.0 15.0
45.0 10.0 15.0
50.0 10.0 15.0
55.0 10.0 15.0
60.0 10.0 15.0
65.0 10.0 15.0
70.0 10.0 15.0
75.0 10.0 15.0
80.0 10.0 15.0
85.0 10.0 15.0
90.0 10.0 15.0
95.0 10.0 15.0
100.0 10.0 15.0
0.0 15.0 15.0
5.0 15.0 15.0
10.0 15.0 15.0
15.0 15.0 15.0
20.0 15.0 15.0
25.0 15.0 15.0
30.0 15.0 15.0
35.0 15.0 15.0
40.0 15.0 15.0
45.0 15.0 15.0
50.0 15.0 15.0
55.0 15.0 15.0
60.0 15.0 15.0
65.0 15.0 15.0
70.0 15.0 15.0
75.0 15.0 15.0
80.0 15.0 15.0
85.0 15.0 15.0
90.0 15.0 15.0
95.0 15.0 15.0
100.0 15.0 15.0
0.0 20.0 15.0
5.0 20.0 15.0
10.0 20.0 15.0
15.0 20.0 15.0
20.0 20.0 15.0
25.0 20.0 15.0
30.0 20.0 15.0
35.0 20.0 15.0
40.0 20.0 15.0
45.0 20.0 15.0
50.0 20.0 15.0
55.0 20.0 15.0
60.0 20.0 15.0
65.0 20.0 15.0
70.0 20.0 15.0
75.0 20.0 15.0
80.0 20.0 15.0
85.0 20.0 15.0
90.0 20.0 15.0
95.0 20.0 15.0
100.0 20.0 15.0
80.0 25.0 0.0
85.0 25.0 0.0
90.0 25.0 0.0
95.0 25.0 0.0
100.0 25.0 0.0
80.0 30.0 0.0
85.0 30.0 0.0
90.0 30.0 0.0
95.0 30.0 0.0
100.0 30.0 0.0
80.0 35.0 0.0
85.0 35.0 0.0
90.0 35.0 0.0
95.0 35.0 0.0
100.0 35.0 0.0
80.0 40.0 0.0
85.0 40.0 0.0
90.0 40.0 0.0
95.0 40.0 0.0
100.0 40.0 0.0
80.0 45.0 0.0
85.0 45.0 0.0
90.0 45.0 0.0
95.0 45.0 0.0
100.0 45.0 0.0
80.0 50.0 0.0
85.0 50.0 0.0
90.0 50.0 0.0
95.0 50.0 0.0
100.0 50.0 0.0
80.0 55.0 0.0
85.0 55.0 0.0
90.0 55.0 0.0
95.0 55.0 0.0
100.0 55.0 0.0
80.0 60.0 0.0
85.0 60.0 0.0
90.0 60.0 0.0
95.0 60.0 0.0
100.0 60.0 0.0
80.0 65.0 0.0
85.0 65.0 0.0
90.0 65.0 0.0
95.0 65.0 0.0
100.0 65.0 0.0
80.0 70.0 0.0
85.0 70.0 0.0
90.0 70.0 0.0
95.0 70.0 0.0
100.0 70.0 0.0
80.0 25.0 5.0
85.0 25.0 5.0
90.0 25.0 5.0
95.0 25.0 5.0
100.0 25.0 5.0
80.0 30.0 5.0
85.0 30.0 5.0
90.0 30.0 5.0
95.0 30.0 5.0
100.0 30.0 5.0
80.0 35.0 5.0
85.0 35.0 5.0
90.0 35.0 5.0
95.0 35.0 5.0
100.0 35.0 5.0
80.0 40.0 5.0
85.0 40.0 5.0
90.0 40.0 5.0
95.0 40.0 5.0
100.0 40.0 5.0
80.0 45.0 5.0
85.0 45.0 5.0
90.0 45.0 5.0
95.0 45.0 5.0
100.0 45.0 5.0
80.0 50.0 5.0
85.0 50.0 5.0
90.0 50.0 5.0
95.0 50.0 5.0
100.0 50.0 5.0
80.0 55.0 5.0
85.0 55.0 5.0
90.0 55.0 5.0
95.0 55.0 5.0
100.0 55.0 5.0
80.0 60.0 5.0
85.0 60.0 5.0
90.0 60.0 5.0
95.0 60.0 5.0
100.0 60.0 5.0
80.0 65.0 5.0
85.0 65.0 5.0
90.0 65.0 5.0
95.0 65.0 5.0
100.0 65.0 5.0
80.0 70.0 5.0
85.0 70.0 5.0
90.0 70.0 5.0
95.0 70.0 5.0
100.0 70.0 5.0
80.0 25.0 10.0
85.0 25.0 10.0
90.0 25.0 10.0
95.0 25.0 10.0
100.0 25.0 10.0
80.0 30.0 10.0
85.0 30.0 10.0
90.0 30.0 10.0
95.0 30.0 10.0
100.0 30.0 10.0
80.0 35.0 10.0
85.0 35.0 10.0
90.0 35.0 10.0
95.0 35.0 10.0
100.0 35.0 10.0
80.0 40.0 10.0
85.0 40.0 10.0
90.0 40.0 10.0
95.0 40.0 10.0
100.0 40.0 10.0
80.0 45.0 10.0
85.0 45.0 10.0
90.0 45.0 10.0
95.0 45.0 10.0
100.0 45.0 10.0
80.0 50.0 10.0
85.0 50.0 10.0
90.0 50.0 10.0
95.0 50.0 10.0
100.0 50.0 10.0
80.0 55.0 10.0
85.0 55.0 10.0
90.0 55.0 10.0
95.0 55.0 10.0
100.0 55.0 10.0
80.0 60.0 10.0
85.0 60.0 10.0
90.0 60.0 10.0
95.0 60.0 10.0
100.0 60.0 10.0
80.0 65.0 10.0
85.0 65.0 10.0
90.0 65.0 10.0
95.0 65.0 10.0
100.0 65.0 10.0
80.0 70.0 10.0
85.0 70.0 10.0
90.0 70.0 10.0
95.0 70.0 10.0
100.0 70.0 10.0
80.0 25.0 15.0
85.0 25.0 15.0
90.0 25.0 15.0
95.0 25.0 15.0
100.0 25.0 15.0
80.0 30.0 15.0
85.0 30.0 15.0
90.0 30.0 15.0
95.0 30.0 15.0
100.0 30.0 15.0
80.0 35.0 15.0
85.0 35.0 15.0
90.0 35.0 15.0
95.0 35.0 15.0
100.0 35.0 15.0
80.0 40.0 15.0
85.0 40.0 15.0
90.0 40.0 15.0
95.0 40.0 15.0
100.0 40.0 15.0
80.0 45.0 15.0
85.0 45.0 15.0
90.0 45.0 15.0
95.0 45.0 15.0
100.0 45.0 15.0
80.0 50.0 15.0
85.0 50.0 15.0
90.0 50.0 15.0
95.0 50.0 15.0
100.0 50.0 15.0
80.0 55.0 15.0
85.0 55.0 15.0
90.0 55.0 15.0
95.0 55.0 15.0
100.0 55.0 15.0
80.0 60.0 15.0
85.0 60.0 15.0
90.0 60.0 15.0
95.0 60.0 15.0
100.0 60.0 15.0
80.0 65.0 15.0
85.0 65.0 15.0
90.0 65.0 15.0
95.0 65.0 15.0
100.0 65.0 15.0
80.0 70.0 15.0
85.0 70.0 15.0
90.0 70.0 15.0
95.0 70.0 15.0
100.0 70.0 15.0
CELLS 2160 10800
4 0 1 22 105
4 1 22 105 106
4 22 105 106 127
4 0 22 21 105
4 22 21 105 126
4 22 105 127 126
4 1 2 23 106
4 2 23 106 107
4 23 106 107 128
4 1 23 22 106
4 23 22 106 127
4 23 106 128 127
4 2 3 24 107
4 3 24 107 108
4 24 107 108 129
4 2 24 23 107
4 24 23 107 128
4 24 107 129 128
4 3 4 25 108
4 4 25 108 109
4 25 108 109 130
4 3 25 24 108
4 25 24 108 129
4 25 108 130 129
4 4 5 26 109
4 5 26 109 110
4 26 109 110 131
4 4 26 25 109
4 26 25 109 130
4 26 109 131 130
4 5 6 27 110
4 6 27 110 111
4 27 110 111 132
4 5 27 26 110
4 27 26 110 131
4 27 110 132 131
4 6 7 28 111
4 7 28 111 112
4 28 111 112 133
4 6 28 27 111
4 28 27 111 132
4 28 111 133 132
4 7 8 29 112
4 8 29 112 113
4 29 112 113 134
4 7 29 28 112
4 29 28 112 133
4 29 112 134 133
4 8 9 30 113
4 9 30 113 114
4 30 113 114 135
4 8 30 29 113
4 30 29 113 134
4 30 113 135 134
4 9 10 31 114
4 10 31 114 115
4 31 114 115 136
4 9 31 30 114
4 31 30 114 135
4 31 114 136 135
4 10 11 32 115
4 11 32 115 116
4 32 115 116 137
4 10 32 31 115
4 32 31 115 136
4 32 115 137 136
4 11 12 33 116
[...]
POINT_DATA 620
VECTORS displacement float
-3.1483692002693604e-207 5.22765036590329e-207 2.3859053954464925e-208
-1.548850746913959e-191 2.2803637856017068e-191 1.6135148474523927e-202
-1.6746118141802033e-184 2.2109950131826056e-184 -8.189721399993068e-186
-1.808663816887768e-177 2.1642940016754534e-177 -1.6362500565404623e-178
-1.9455075695966292e-170 2.097181499657046e-170 -2.510340673870578e-171
-2.0792595655143765e-163 1.9779474376350512e-163 -3.526795160104445e-164
-2.2031653822343176e-156 1.7809708950629983e-156 -4.7432584514184556e-157
-2.3087848225520255e-149 1.4856680969179451e-149 -6.191741351370269e-150
-2.383793415909907e-142 1.0796515518258476e-142 -7.858117960239669e-143
-2.4052135232027372e-135 5.679063761464922e-136 -9.616690546464445e-136
-2.320210287368066e-128 -6.32581052112622e-131 -1.106683852255664e-128
-2.0038360715531305e-121 -5.133904339701002e-122 -1.1194994776230506e-121
-1.230444488193896e-114 -6.451449077661504e-115 -7.998433144681687e-115
-2.1241008341796904e-114 -1.463163230115994e-113 -7.372311881478942e-114
-6.805629379919826e-113 1.6282020909526885e-114 -2.5517936360061658e-113
8.932662363436558e-113 -3.43689491146572e-112 -1.2798299196166116e-112
-4.592599814730832e-112 1.8068370518501764e-112 -7.793079069900797e-113
2.7786563803265726e-112 -1.407965899373682e-111 -5.772228540608814e-112
-2.22252770247505e-112 -3.5223921597828473e-112 -2.5295973810571455e-112
3.854246918907037e-112 -1.2123723251906574e-111 -4.493727678442684e-112
3.126432607472705e-115 -1.1165623651641075e-114 -3.1263818071865745e-115
1.0251217714855404e-197 -5.627253653720457e-198 3.311506951888987e-198
1.0262318286846469e-190 -5.813564043613674e-191 3.3061916379784405e-191
9.970528765498921e-184 -6.25620228302152e-184 2.76871902444953e-184
9.88570674595769e-177 -6.753696875508632e-177 2.4196961709711815e-177
9.801528873477802e-170 -7.277459333845417e-170 2.1177470597813578e-170
9.571478495370793e-163 -7.801563921532913e-163 1.7734216889004496e-163
9.07744325746001e-156 -8.299200398678044e-156 1.324298826313052e-156
8.216235311310513e-149 -8.740420912160709e-149 7.233323812188253e-150
6.901140410051751e-142 -9.090882353432015e-142 -6.314209027599756e-144
5.082066270302241e-135 -9.310783910190811e-135 -1.0471331909279382e-135
2.7965139110181025e-128 -9.34868362100382e-128 -2.1938359193464115e-128
2.773936952335864e-122 -9.102867147588376e-121 -3.358060471948708e-121
-1.8450570349685647e-114 -8.246727470734228e-114 -4.120874618222971e-114
-2.3144970105825094e-107 -5.728075559796894e-107 -3.447786690717655e-107
-5.0600657948589675e-106 -6.897792473343107e-107 -2.3214484934416037e-106
5.731291438410564e-106 -3.0027410889763345e-105 -1.1793506859550005e-105
-5.2034153609083e-105 1.4751710193551648e-105 -1.1562386296903732e-105
2.891128981734152e-105 -1.6369248393865578e-104 -6.833148837766964e-105
-2.320448722193435e-105 -5.2456589547241e-105 -3.4045996839142207e-105
4.594121940990277e-105 -1.4462880511489265e-104 -5.362192649583574e-105
5.754623319501627e-108 -2.101415478628273e-107 -5.754516900634799e-108
-1.0857257832678308e-197 4.080291513220749e-198 -3.5698682424782636e-198
-1.226659999961423e-190 4.5413840297242736e-191 -4.1294807002855215e-191
-1.3541812315701048e-183 5.611116748890824e-184 -4.461177875126904e-184
-1.5233884826638287e-176 6.673371014073003e-177 -4.942679985377476e-177
-1.729229771814877e-169 7.801207391402703e-170 -5.549974060666658e-170
-1.969511884509065e-162 9.032113695498585e-163 -6.271349925888648e-163
-2.2431729552591356e-155 1.0374549724827327e-155 -7.102691910580952e-156
-2.5486604886059516e-148 1.1801055069645137e-148 -8.04442933944546e-149
-2.881833239971698e-141 1.3224551698872524e-141 -9.099597008372585e-142
-3.2325446717904795e-134 1.444773184502545e-134 -1.0272793654403504e-134
-3.5783928119377416e-127 1.5066174474000338e-127 -1.1570150239465765e-127
-3.872426292941713e-120 1.430087986701069e-120 -1.299869099267452e-120
-4.0166558941729195e-113 1.0797898914580348e-113 -1.4538776527965814e-113
-3.7976035145234314e-106 2.931999364317988e-107 -1.5868614807620254e-106
-2.7288364217193923e-99 -7.379776078033165e-100 -1.4568302404700652e-99
1.8038794483946835e-99 -2.3234559094495137e-98 -9.971670333719167e-99
-5.91729467139328e-98 1.0523397163295478e-98 -1.6172133081216054e-98
2.972439260216158e-98 -1.9107548471504535e-97 -8.121367712857372e-98
-2.3754271263492535e-98 -7.501591201846759e-98 -4.52296236013182e-98
5.4739958835097385e-98 -1.7254772315453507e-97 -6.399816324189395e-98
1.0560391219756964e-100 -3.981164860637837e-100 -1.056029930717182e-100
5.250253149642317e-198 -6.516034725090084e-199 2.037203015372168e-198
6.070331889004545e-191 -7.885958413493372e-192 2.4094167950034148e-191
6.778834737273976e-184 -1.5231090185502584e-184 2.6167486414221093e-184
7.786856209064037e-177 -2.162737097902197e-177 2.9406489863124306e-177
9.082591275546466e-170 -2.8053882848901844e-170 3.369717671548536e-170
1.066949248232989e-162 -3.5308195802300365e-163 3.8925430178439587e-163
1.2555461834774771e-155 -4.4246514041680873e-156 4.4899773154390646e-156
1.47382933517825e-148 -5.6058338238921625e-149 5.121391457183468e-149
1.718125071773344e-141 -7.268313311485613e-142 5.699219106623636e-142
1.9767986869467465e-134 -9.754181648295337e-135 6.040755025177476e-135
2.221690064103201e-127 -1.36896108278283e-127 5.775707600434373e-128
2.3918433040911565e-120 -2.0242696965271242e-120 4.166102684964767e-121
2.3634783554121273e-113 -3.161047187462306e-113 -2.545051781719348e-115
1.9014111428015749e-106 -5.184209936373285e-106 -1.0412906442342362e-106
6.325826383904368e-100 -8.70426996880939e-99 -3.1747505275131516e-99
-1.5189480116932551e-92 -1.3130069127310414e-91 -6.631142454755374e-92
-6.658265142480389e-91 5.4604268692484866e-92 -2.128775948435472e-91
3.0116153988555266e-91 -2.2399199660172875e-90 -9.691524899845595e-91
-2.3685931481966135e-91 -1.0430508043393242e-90 -5.946082983704554e-91
6.518000131329072e-91 -2.0588670446764584e-90 -7.641377105228114e-91
1.988688933263459e-93 -7.574443209413531e-93 -1.988702287528924e-93
3.9444419379906467e-199 -4.6377754338333465e-199 4.637683419439187e-199
2.84266999164992e-192 -5.290647988249425e-192 5.290447886219026e-192
1.1570051186936713e-185 -3.0101852192714946e-185 3.009946887512985e-185
-3.315959528166886e-179 -1.5255816851456166e-178 1.5252975927940425e-178
-2.1422006657801016e-171 -4.0005047917382035e-172 3.9971159448681913e-172
-4.982026255363489e-164 7.305309941707298e-165 -7.3093614625541205e-165
-1.0031145776935579e-156 2.2813065926116807e-157 -2.2817967784333653e-157
-1.9439017693466856e-149 4.877528368856563e-150 -4.878161315891311e-150
-3.724350026866048e-142 9.612089175386827e-143 -9.613179016682245e-143
-7.110637915779577e-135 1.8508756408850952e-135 -1.851238013307999e-135
-1.356121426157581e-127 3.538542070881983e-128 -3.540587220273988e-128
-2.585518474265874e-120 6.7464056796716035e-121 -6.760041849701357e-121
-4.9291071940849567e-113 1.2824508597910482e-113 -1.2918506856899372e-113
-9.398333188077407e-106 2.4159176155539307e-106 -2.4810982018050777e-106
-1.793486690794106e-98 4.391024107727876e-99 -4.8434731727134486e-99
-3.436793698127766e-91 6.757585804753029e-92 -9.898847856801704e-92
-6.719919662159761e-84 5.19650764739581e-86 -2.2329661742114604e-84
2.9957684791852786e-84 -2.6374654057995646e-83 -1.1611259336946424e-83
-2.277102431736382e-84 -1.4206376332808972e-83 -7.749909694624002e-84
7.752880193796219e-84 -2.4572263685985187e-83 -9.129556952610697e-84
3.776364078323311e-86 -1.4430138410356427e-85 -3.776548856062033e-86
-7.420787962068868e-192 1.0551062089255268e-191 5.501893695074575e-193
-4.0100753552684184e-185 5.5755574880814005e-185 2.5859083303194415e-186
-2.150199948660125e-178 2.91341698054205e-178 1.1530682688595674e-179
-1.142353994166773e-171 1.5014062983523153e-171 4.7062941695120456e-173
-6.002223357936064e-165 7.6029766267566545e-165 1.6004612650505092e-166
-3.111439723281937e-158 3.763190018688191e-158 2.868258620043389e-160
-1.586132430398368e-151 1.8060550357725063e-151 -1.9616036131851756e-153
-7.915269206270261e-145 8.297154973465256e-145 -3.162562867279088e-146
-3.8396161189300286e-138 3.5689343397756333e-138 -2.929009793183923e-139
-1.7878201129023054e-131 1.3779819741174082e-131 -2.2356106567036765e-132
-7.773710751957122e-125 4.348885840070815e-125 -1.4796222176115103e-125
-2.936619344495375e-118 8.464549970346087e-119 -8.07171046160043e-119
-7.594452517454477e-112 -2.721871939442779e-113 -2.866366409060057e-112
3.352111987498247e-111 -1.0810051546178439e-110 -2.95349940874032e-111
-6.243912320655321e-110 3.736622627445869e-110 -5.955196620271219e-111
1.7550537869082813e-109 -3.269660531861538e-109 -7.515864406210656e-110
-5.767277827941336e-109 5.8828371233568645e-109 6.097628461051236e-110
7.308459652840262e-109 -1.6798185066221846e-108 -4.654938787793144e-109
-7.928649583731134e-109 1.0659064559005822e-108 1.9838255696595592e-109
5.231456154545193e-109 -1.6408514398265178e-108 -5.221429510072178e-109
2.4778111101135316e-113 -6.624888069432961e-113 -2.0531238298690894e-113
4.2803693039934965e-191 -2.336477688656174e-191 1.0469437136933703e-191
2.2873323309829668e-184 -1.2746397584293874e-184 5.504822789564416e-185
1.2114720793308935e-177 -6.911852652044286e-178 2.860016927345113e-178
6.348121030829131e-171 -3.7217494805842554e-171 1.4639776968304142e-171
3.2829452339529144e-164 -1.987432450946392e-164 7.352561227343296e-165
1.669927678757391e-157 -1.050790585391663e-157 3.6007315946152283e-158
8.314479118235775e-151 -5.4888562163556356e-151 1.7026488688519284e-151
4.0226692896623325e-144 -2.82450050460191e-144 7.64359598261816e-145
1.869649414858438e-137 -1.426284290129338e-137 3.152283924670633e-138
8.189163857491604e-131 -7.029394872968932e-131 1.104042241680536e-131
3.2645201251105175e-124 -3.353232771237372e-124 2.4406968561815367e-125
1.1032886534145409e-117 -1.5228353073235322e-117 -5.78221712120625e-119
2.65416179475416e-111 -6.267917108799705e-111 -1.0980460937132867e-111
2.2689286918210646e-105 -1.9066738713336114e-104 -6.136581509511944e-105
-2.0761760565563954e-103 9.056210132648143e-104 -3.579375382951687e-104
6.841458468929424e-103 -1.332071919715408e-102 -3.0695554665740966e-103
-2.953998906449271e-102 2.6820629226681772e-102 1.7220498937178215e-103
3.857719136952432e-102 -9.058832086914127e-102 -2.52602737440676e-102
-4.497142726944738e-102 5.646106746182259e-102 9.597901945391805e-103
3.116693580616402e-102 -9.772577334044481e-102 -3.104733797815131e-102
2.9760833820087764e-106 -7.918638181300197e-106 -2.4165593150280087e-106
-4.1392155907979753e-191 2.10287241057856e-191 -1.0745452335422146e-191
-2.3441393603723582e-184 1.213667411242522e-184 -6.014271367765413e-185
-1.3240240203385123e-177 6.99726628733533e-178 -3.3525193317797145e-178
-7.456282982059615e-171 4.0294408195233975e-171 -1.8601305602331194e-171
-4.185062225980363e-164 2.317205967323341e-164 -1.026601773847083e-164
-2.340092816970363e-157 1.3302815795210713e-157 -5.631012884938726e-158
-1.302723970495816e-150 7.619285668614397e-151 -3.066636967619105e-151
-7.214273459896874e-144 4.348647912256923e-144 -1.6562183777020384e-144
-3.969148349387893e-137 2.4672033535438983e-137 -8.859033948208975e-138
-2.164892992629909e-130 1.384410284874128e-130 -4.687533219607898e-131
-1.1659450925446507e-123 7.60059700721005e-124 -2.452204462223101e-124
-6.1490719437810904e-117 3.987367761840665e-117 -1.2695576543734126e-117
-3.113669594620166e-110 1.8930356148349676e-110 -6.509050255271082e-111
-1.4330331888732584e-103 7.07824441438187e-104 -3.2272988190010925e-104
-4.912752334766614e-97 1.2990720984390447e-97 -1.28200975758919e-97
2.271266760151755e-96 -4.807056072646615e-96 -1.1110874535459302e-96
-1.4996195794352777e-95 1.1682148447594316e-95 4.815643091736873e-98
2.0127077671057986e-95 -4.8646636996704715e-95 -1.3652286665982174e-95
-2.5432361816473483e-95 2.9421308255719973e-95 4.403857752940198e-96
1.8578129550202803e-95 -5.8217472973626884e-95 -1.84354717311056e-95
3.5867910858049215e-99 -9.479618064411097e-99 -2.82273074333192e-99
2.836675084577835e-191 -9.042740328884122e-192 9.040968197884565e-192
1.6890256779237369e-184 -5.385121568779765e-185 5.3830067116649716e-185
1.0056653986732439e-177 -3.207384231035309e-178 3.204857932105555e-178
5.987585136439343e-171 -1.9108472030628066e-171 1.9078316411089772e-171
3.564607428661967e-164 -1.1390426841412933e-164 1.1354444285126113e-164
2.121754806512798e-157 -6.79722583355359e-158 6.7542983441066415e-158
1.2624823225962424e-150 -4.065137801808832e-151 4.013929899266923e-151
7.506678771105256e-144 -2.4417755148836282e-144 2.3806937826100465e-144
4.457106019852721e-137 -1.4792358449851882e-137 1.4063820480811369e-137
2.638863447998764e-130 -9.109190336435769e-131 8.240406240468905e-131
1.5533843971740657e-123 -5.781515797710495e-124 4.746080617017018e-124
9.03804961855935e-117 -3.8639557934462994e-117 2.6321622694835814e-117
5.134944453538945e-110 -2.78859106789548e-110 1.33184125902735e-110
2.777609357974898e-103 -2.1978583960204537e-103 5.0779539223766665e-104
1.3550158662676019e-96 -1.814527931703283e-96 -2.50094302700234e-98
5.216479074591377e-90 -1.283998917484904e-89 -2.907519460492565e-90
-7.492114473544783e-89 4.748442218162544e-89 -4.567981231832576e-90
1.03526838067477e-88 -2.6026075279613294e-88 -7.335565575482913e-89
-1.4326777815022515e-88 1.498744164221212e-88 1.8528264904483918e-89
1.1086201930379153e-88 -3.4698184207546023e-88 -1.0916042657256709e-88
4.354744400538162e-92 -1.1379443548763354e-91 -3.2527684817413684e-92
-2.0243693820388416e-195 7.484167496727216e-196 -6.44060608593631e-196
-2.4163301317918495e-188 8.932692170515793e-189 -7.686813050197251e-189
-2.883880607854003e-181 1.0672493986695189e-181 -9.177539536275378e-182
-3.440908667416373e-174 1.2740856944383492e-174 -1.095213278146534e-174
-4.104936876196183e-167 1.520393003987945e-167 -1.3066545452029791e-167
-4.896766648104607e-160 1.8139595839631462e-160 -1.5586922018288565e-160
-5.841157264244213e-153 2.1640213224860527e-153 -1.859167898439257e-153
-6.967624128067645e-146 2.5815770106011275e-146 -2.217383882937812e-146
-8.311390303188229e-139 3.07976334897131e-139 -2.6443624640469845e-139
-9.914534306970356e-132 3.674312757519748e-132 -3.1531228214631224e-132
-1.182739679346588e-124 4.3841265474033907e-125 -3.758936821975869e-125
-1.4110363304337126e-117 5.2320320608681e-118 -4.479392931986566e-118
-1.6836345898248033e-110 6.2460848379938396e-111 -5.333332360526771e-111
-2.0095246965779336e-103 7.464504665389965e-104 -6.33269337691487e-104
-2.40066767669873e-96 8.971506441050615e-97 -7.426195279998219e-97
-2.87744610750327e-89 1.1194653562776405e-89 -8.101071628456084e-90
-3.4970340240918163e-82 1.7346144125417938e-82 -4.496832130891523e-83
5.2326189712681863e-82 -1.3895402124746457e-81 -3.9026212922780986e-82
-8.024957687419213e-82 7.377765861395603e-82 6.613547288919843e-83
6.62995273178057e-82 -2.0700447067232575e-81 -6.42700250401437e-82
5.343884316652717e-85 -1.3715058398537474e-84 -3.66235067099924e-85
-3.603108853927545e-191 4.5354186202615404e-191 1.2689017905325029e-192
-1.921495613636202e-184 2.410121789231085e-184 6.879453071517854e-186
-1.0129525757094126e-177 1.2671228672025916e-177 3.759862173107667e-179
-5.264821153266169e-171 6.576637886842075e-171 2.0785640078791634e-172
-2.6882576055074624e-164 3.3597387154282737e-164 1.1654945996861802e-165
-1.3418306527818823e-157 1.6823892383554814e-157 6.633387634471255e-159
-6.501401162591656e-151 8.208680434430015e-151 3.821040977062214e-152
-3.026492555997094e-144 3.867623178575773e-144 2.2091131376082123e-145
-1.3327748556013248e-137 1.734859835363594e-137 1.2617605877575319e-138
-5.416207352162106e-131 7.233349419628831e-131 6.936519657040947e-132
-1.9444167201774002e-124 2.683854726368934e-124 3.5187343645766313e-125
-5.624078562686415e-118 8.110534868164159e-118 1.5254692281394746e-118
-1.0018734970297186e-111 1.5826123710286024e-111 4.593205276943044e-112
2.2991145764373136e-110 -1.8624558623472613e-110 3.77509707255621e-111
-1.2296500905938383e-109 1.800668790057036e-109 2.940758793734337e-110
4.995244764215335e-109 -5.490523708778759e-109 1.8912410765356005e-110
-8.847234297889126e-109 1.6650767813097679e-108 2.9827434822373025e-109
1.1170466735477531e-108 -1.5321907671754892e-108 1.278067313025857e-109
-7.436320548515686e-109 2.0311834842501295e-108 3.90500280467756e-109
1.1275437082358455e-109 9.065820987058243e-110 4.826128844098995e-109
1.2388367008607623e-113 -1.522981326701704e-113 1.3620257686466804e-113
1.691010792533124e-190 -8.8749685528245e-191 3.2538070050960414e-191
9.090791409243023e-184 -4.829746032662799e-184 1.7321077394340322e-184
4.845439275199655e-177 -2.607412372036081e-177 9.132979844377668e-178
2.5567156580488786e-170 -1.394372729936649e-170 4.762200946386748e-171
1.3328608009807818e-163 -7.371960729004181e-164 2.4504992872374155e-164
6.846565451549251e-157 -3.843053204778028e-157 1.2409186433414336e-157
3.452379108854342e-150 -1.968205510160279e-150 6.160373573748515e-151
1.699666539425824e-143 -9.851357923984301e-144 2.981703312323824e-144
8.102751744947704e-137 -4.781920289137504e-137 1.39564713008122e-137
3.691432488299984e-130 -2.2245130683072248e-130 6.238524468177069e-131
1.571180993885155e-123 -9.726873667608533e-124 2.611195271509093e-124
5.988999773027373e-117 -3.8584735702609595e-117 9.941212193441141e-118
1.86898911996093e-110 -1.2809319194546247e-110 3.329468034143774e-111
3.7345138199673803e-104 -2.7354187146166268e-104 9.206463257211273e-105
-3.5848670550165363e-103 4.900556184680676e-103 8.18951233521822e-104
2.013084731821224e-102 -2.1021160685908727e-102 1.4945556854708935e-103
-4.25307823172308e-102 7.576563213189473e-102 1.3177199876063071e-102
5.841260541012261e-102 -8.054972349168405e-102 7.418327181455727e-103
-4.1736533626312886e-102 1.0883043195838799e-101 2.0757776586362834e-102
8.937445007274262e-103 -1.5597895395371288e-103 2.6550271847047586e-102
1.6876002296127134e-106 -2.3697145686818535e-106 1.4668871195526137e-106
-1.310948683265849e-190 6.430339645180472e-191 -2.5094966587342766e-191
-7.40393912083466e-184 3.7235792280931636e-184 -1.3890368295129888e-184
-4.159031668036759e-177 2.151167448063021e-177 -7.611865399388806e-178
-2.3217712467624523e-170 1.2396002963330082e-170 -4.120714963041215e-171
-1.2867591133376253e-163 7.123024484492287e-164 -2.19709492755459e-164
-7.070516453953472e-157 4.0800047875496475e-157 -1.148790765651402e-157
-3.8452741051272274e-150 2.3282442554396088e-150 -5.852321052042162e-151
-2.0649610256011955e-143 1.3224151575806604e-143 -2.8748826846000666e-144
-1.091435738540494e-136 7.463613696449215e-137 -1.3377423218720951e-137
-5.65136274870967e-130 4.1719445828994845e-130 -5.695512145456255e-131
-2.8461438863983623e-123 2.293885473078461e-123 -2.0423573758182693e-124
-1.3772918321019026e-116 1.2228139408233865e-116 -4.47760879289497e-118
-6.250064260354588e-110 6.127091661658017e-110 1.3334722273538548e-111
-2.4977763265457536e-103 2.6979979761405364e-103 2.474675848884974e-104
-7.002768335217797e-97 8.758538543393769e-97 1.682552963213112e-97
7.1881061422078786e-96 -7.072458927681622e-96 8.75751085156386e-97
-2.0008494395265073e-95 3.2651845968692085e-95 5.391568301906826e-96
3.0026841875874044e-95 -4.223196650087613e-95 4.158208378418279e-96
-2.3143645884711693e-95 5.698997000365512e-95 1.071258377223999e-95
6.6472628050567895e-96 -5.066125684614183e-96 1.4527747043897512e-95
2.2623820734393556e-99 -3.476632421733316e-99 1.5788489069170206e-99
6.675842396055112e-191 -2.3725570090872317e-191 1.3441048450440393e-191
4.0954705243633034e-184 -1.4511092463566984e-184 8.387042674992243e-185
2.510262651538254e-177 -8.869153892465353e-178 5.222257386226002e-178
1.537328038556954e-170 -5.417308325264358e-171 3.2452145765660597e-171
9.407016142418968e-164 -3.30698248526693e-164 2.012797061103093e-164
5.7512957465785434e-157 -2.017772035794143e-157 1.2460091974115683e-157
3.512926089558001e-150 -1.2308045232815606e-150 7.697034856269385e-151