ITEM: TIMESTEP
0
ITEM: NUMBER OF ATOMS
592
ITEM: BOX BOUNDS pp pp pp
0.0000000000000000e+00 1.7606958851500000e+01
0.0000000000000000e+00 1.5248073648800000e+01
0.0000000000000000e+00 3.1980000000000000e+01
ITEM: ATOMS id element xu yu zu fx fy fz q
1 Au                1.641                0.907               -6.109   0.0175450409796191   0.0255728183489497   -0.145045185358127    -0.11309910509358
2 Au                4.468                0.823               -6.152   0.0057262748123801 -0.00667850107706502   -0.301729698301046   -0.164416254592347
3 Au                 7.34                0.806               -5.843  -0.0026610839587364  -0.0207468617162844    -0.18459555687724   -0.124283078495191
4 Au               10.208                0.687               -6.268  -0.0576064985218722  -0.0219085326937869   -0.069936428855528  -0.0766612744506447
5 Au               13.118                0.788               -6.069   0.0522189459525593  -0.0164573121243944  -0.0721178480193362  -0.0711108378723091
6 Au               16.208                1.084               -5.878 -7.88596519560821e-05  0.00597511964630328  -0.0548654095181265  -0.0680342262411067
7 Au   -0.103999999999999                3.513               -6.014   0.0342558891872539  0.00433227321625117   -0.168107659898542     -0.1225001458726
8 Au                 2.86                3.189               -5.905 -0.000700730183677915    0.091977255796068     -0.4002785085023   -0.187189850573808
9 Au                5.817                3.228               -6.048  -0.0237666173285377   0.0344408028161464   -0.324308175510763   -0.171857739385006
10 Au                9.181                3.288               -5.996  -0.0326468160832359   0.0199118730097285  -0.0738957297017382  -0.0840280336363772
11 Au               11.978                3.536               -6.038 6.21035939879756e-05 2.76187532028838e-05 2.98480795692928e-05 -0.000457850425351111
12 Au               14.755                3.415               -5.902  0.00421679506912928 -0.00648927873677622  -0.0325709915953264  -0.0519435533079243
13 Au                1.439                5.849               -6.026   0.0522787798340325  -0.0303568279572061   -0.367501409358702   -0.185786130650611
14 Au                4.412                5.936               -5.893 -0.00229204864777267  -0.0388231234303914   -0.273215710352961   -0.159711154874044
15 Au                7.405                5.694               -6.133  -0.0065793695048479  -0.0228029036683073   -0.360415886969253   -0.185610101252702
16 Au               10.179                5.969                -6.03  -0.0120006439724416 -0.000516551164248989   -0.155383482815401   -0.113748312056102
17 Au               13.149                6.072               -6.388  -0.0100320758845842    0.010705762609708  -0.0384188616606059  -0.0624318816846434
18 Au                16.06                5.877                -5.97   0.0227869511312631  0.00765554209334223  -0.0699636526830318  -0.0781799451935644
19 Au                0.161                8.664               -6.014    0.016243501335469   0.0165305124800681   -0.284837037860954   -0.161681458520231
20 Au                3.057                8.369               -6.088 -0.00618648173108352   0.0546467021163183   -0.372779065306313   -0.187334524845111
21 Au                 5.98                8.346               -6.298  -0.0295609665308974  -0.0190994285074017   -0.573671550151985   -0.232967596076254
22 Au                8.798                8.645               -6.073  -0.0156961745801777   0.0105055217046168    -0.21558195973332   -0.136188639184027
23 Au               11.943                8.453               -6.232 -0.00271518388915575   0.0305151124234998   -0.149231592389747   -0.117897693748869
24 Au               14.916                 8.46               -6.088   0.0170767888803464   0.0347168759518805   -0.153852421103227    -0.11840401174552
25 Au                1.532                11.18               -6.015   0.0145240084607257   0.0225403675174076   -0.550979842881243   -0.227061566199094
26 Au                4.592               10.899               -5.867  -0.0398040270410339   0.0264991143166942   -0.361378296971347   -0.180651282838188
27 Au                7.474               11.008                -6.17  -0.0155029562862312   0.0207317768677552   -0.431601385144002   -0.199182214013203
28 Au               10.437               10.942                -6.12 -0.00342794974160669   0.0309569513890193   -0.327856955315551   -0.171551580842618
29 Au               13.297               10.944               -6.006 0.000649940295117918   0.0458813379453043   -0.351943601054083   -0.173958191170089
30 Au               16.205               11.161               -5.905   0.0153551388181151 -0.00132095840386399     -0.2967579865895   -0.160722997662936
31 Au                0.032                 13.7               -6.151   0.0264086091018691  -0.0980448743426119   -0.227670271176889   -0.147505037300066
32 Au                2.964                13.66               -5.779   0.0503633465399072  -0.0593279600166716    -0.27619790243255   -0.151343991400031
33 Au                5.824               13.656               -6.035   0.0265178015231532  -0.0327215200979343   -0.490998582237423   -0.212946412580847
34 Au                 8.75               13.499               -6.034  -0.0324656971585863 -0.00502636045872383   -0.329086855941436   -0.173714468644839
35 Au               11.697                 13.4               -5.926  0.00251660378927808  -0.0431788075822055   -0.220147323647709   -0.135209369439802
36 Au               14.652                13.48               -5.869  -0.0142742084320431  -0.0240716849556162    -0.10993818109328  -0.0998327354410763
37 Au  -0.0859999999999985                1.687               -3.525 -1.99540229637825e-06 1.34954573398659e-05 -0.000183571341462758  0.00444968549730886
38 Au                2.958                1.601               -3.511 5.79518382173355e-06 0.000100034899307546 -0.000742918350747103  0.00840768140552346
39 Au                5.724                1.703               -3.647 -2.3265527201301e-05 2.95572335251202e-06 -0.000717541858498422   0.0084837684869308
40 Au                8.953                1.691               -3.607 -2.32205126483318e-05 -1.0112756498999e-05 -0.000149718871929705  0.00411436048828131
41 Au               11.778                1.565               -3.565 -1.09207925176039e-05 -8.10043298660556e-05 -0.000283587058904524  0.00481817086922112
42 Au                14.51                1.687               -3.602 1.15404148200277e-05 8.31471853592615e-06 -2.93172056394682e-05  0.00209359699347397
43 Au                 1.57                4.259               -3.476 -2.00805518538684e-05 -2.95561504975289e-05 -0.000162464661845983  0.00453540833222015
44 Au                4.412                 4.29               -3.506 1.68267328480155e-05 -2.72395842614445e-05 -8.61162843152331e-05  0.00371287397707527
45 Au                 7.36                 4.27               -3.592 -4.15331315058094e-05 4.68244021173085e-05 -8.91887931162142e-05  0.00345739620016565
46 Au               10.313                4.279               -3.664 -3.70108413966699e-05 1.68063584391014e-05 -0.000131479517195803  0.00367191708679424
47 Au               13.264                4.282               -3.518 1.72496670399738e-05 2.03045994681873e-06 -2.88822619320485e-05  0.00165794842233975
48 Au                16.08                 4.23               -3.634 5.27153724283411e-05 -1.15128366791348e-05 -0.000310374967915457  0.00558097075385609
49 Au  -0.0560000000000009                6.853               -3.554 5.33913138423877e-05 -6.56438907921703e-06 -0.000135136290461241  0.00409903169802521
50 Au                2.871                6.754               -3.614 6.18205985075866e-05 8.32411303443536e-05 -0.000387150256441938  0.00649604241599371
51 Au                5.962                6.939               -3.712 -9.06574325931921e-05 6.05691800883567e-05 -0.000395007757723943  0.00679732903881692
52 Au                8.849                6.888               -3.673 1.68098607187241e-05 -6.86802985622581e-06 -0.000239502613870203  0.00528545344873744
53 Au               11.841                6.813               -3.679 -3.35516014826179e-05 2.56287633648091e-05 -0.000150339531202103  0.00393038308616588
54 Au               14.696                6.857               -3.626 2.58937656347229e-05 2.17560597278193e-05 -0.000205781999260873  0.00435930510138724
55 Au                1.422                9.315               -3.703 -0.00012597839845478 1.10972208491019e-05 -0.000305078865803765   0.0061755219715208
56 Au                4.277                9.337               -3.442 5.54396748799477e-05 1.39725283362667e-05 -0.000350028810961161   0.0058852998272324
57 Au                7.213                9.394               -3.692 2.63958011215381e-05 4.66207145696212e-05 -0.000605862111160958  0.00793503874263618
58 Au               10.284                9.388               -3.477 -4.18664586212285e-05 6.20076751890872e-05 -0.000318965221905037  0.00551961359899674
59 Au                13.12                9.284               -3.587 -5.84046460345755e-06  9.7566393652722e-05 -0.00034770901851354  0.00580325122176398
60 Au               16.091                9.286               -3.533 2.84933731913768e-05  4.1734891819464e-05 -0.000242716436129837  0.00519929420970754
61 Au                0.019               11.884               -3.568 2.81653963171122e-06 -0.000102843446186712 -0.000305029326557189   0.0061424684394308
62 Au                 3.08               11.788               -3.692 -7.66675518128748e-05 1.09620248716519e-05 -7.25234157313459e-05  0.00466983851541955
63 Au                6.021               11.892               -3.644 -2.84385492706734e-05 -6.47304294385167e-05 -0.00030489725872929   0.0061901509061792
64 Au                8.948               11.813               -3.606 -2.78626695316326e-05 -1.30710156603927e-05 -0.000429281551426364  0.00675769498199688
65 Au               11.818               11.813               -3.488 -1.51921158420189e-05 -1.90805314189242e-05 -0.000366860078721632  0.00605373384061811
66 Au               14.595               11.804               -3.629  3.7898752636452e-05 -8.00445112483742e-05 -0.000394705698651845  0.00666603887933152
67 Au                1.412               14.474                -3.43 0.000120069857008978 -2.2336279802785e-05 -0.000472986282001796  0.00674315084960963
68 Au                4.502               14.383               -3.408 -2.61122635923722e-05 1.42613285067214e-05 -0.00053573418968013  0.00717553645337618
69 Au                7.328               14.397               -3.518 -5.39543739317508e-05 2.53349430905983e-05 -0.000358999174449613   0.0062522713698618
70 Au               10.357                14.35               -3.626 7.08160958467895e-05 -7.57874122984045e-05 -0.000394335520532888  0.00637388976369323
71 Au               13.137               14.408               -3.685 -8.87557458340321e-05 -3.08276489432126e-05 -0.000212849979572603  0.00496979689476597
72 Au               16.218               14.516               -3.694 4.87374706791663e-05 -4.13205040756535e-05 -0.000243802076022903   0.0050974548276047
73 Au                    0                    0               -1.198 1.79026617972535e-07 -9.84054121072527e-08 -7.69016592480295e-07 -0.000245586440661034
74 Au                2.934                    0               -1.198 1.77691624077562e-08  3.0801456327131e-07 -4.71350665631181e-07 -0.000216010546883329
75 Au                5.869                    0               -1.198 -2.54983622577398e-07 -8.16499117031239e-08 -6.43381003458679e-07 -0.000225051118082662
76 Au                8.803                    0               -1.198 4.88699957360172e-08 -5.62209986010501e-08 -2.04236166888256e-07 -0.000120357027620806
77 Au               11.738                    0               -1.198 -4.95170928672849e-08 8.95695844009942e-08 -4.11326216731762e-07 -0.000185386604145639
78 Au               14.672                    0               -1.198 -6.04359756020577e-09 -1.08593744665089e-08 -1.63157482014886e-07 -0.00010274534756391
79 Au                1.467                2.541               -1.198 2.94237419580481e-08 -6.15863479714637e-08 -6.03846222039845e-08 -7.21637240574495e-05
80 Au                4.402                2.541               -1.198 2.97248355989091e-08 -2.57264900854083e-07 -3.11805022543208e-07 -0.000156925319258292
81 Au                7.336                2.541               -1.198 -1.63610811097545e-08 4.07603386824895e-09 -4.9156032929863e-08 -5.73982377744982e-05
82 Au               10.271                2.541               -1.198  8.7526085544448e-08 -6.43720432977305e-08 -2.84553490229773e-07 -0.00016818878835315
83 Au               13.205                2.541               -1.198 -1.20992577347854e-07 -5.21718944702789e-08 -2.71138294639796e-07 -0.000143027801719649
84 Au                16.14                2.541               -1.198 1.94404511306927e-08 1.30728420912909e-08 -4.53550469885971e-08 -5.59258482795803e-05
85 Au                    0                5.083               -1.198 -9.92387660366031e-09 1.34267387769024e-09 -4.13408765974535e-08 -4.38448120442178e-05
86 Au                2.934                5.083               -1.198 -7.5584421510055e-08  4.0907076880851e-08 -2.67637966896645e-07 -0.000121563795908153
87 Au                5.869                5.083               -1.198 -2.97260277849559e-09 -4.66980595192571e-10  7.1821489128567e-09 1.54656552504955e-05
88 Au                8.803                5.083               -1.198  2.6284284633444e-09 -6.4332472162651e-09 -5.61468588148756e-08 -4.67402849701551e-05
89 Au               11.738                5.083               -1.198 1.15083424644231e-08 -2.61960308704052e-08 -2.0560523700184e-07 -0.000117862491215683
90 Au               14.672                5.083               -1.198 4.60668394652154e-08 2.77629315590259e-08 -1.99927969338449e-07 -0.000124136260741498
91 Au                1.467                7.624               -1.198 5.15684193049935e-08 -4.86266532023983e-09 -2.00012941302647e-07 -0.000104467606677774
92 Au                4.402                7.624               -1.198 -1.8094729542748e-08 8.02231836789894e-08 -7.95334420533848e-08 -8.22960906633405e-05
93 Au                7.336                7.624               -1.198 -5.58789612052143e-08 5.79300286274425e-08 -4.31829595592553e-07 -0.000162833263332655
94 Au               10.271                7.624               -1.198 4.75604460105159e-09 8.15118725119382e-08 -2.31062956495784e-07 -0.000122290473682309
95 Au               13.205                7.624               -1.198 1.38326936718109e-08 7.35504473034673e-08 -6.09601021194923e-07 -0.000211433514908568
96 Au                16.14                7.624               -1.198 -5.37077449507935e-08 2.26585551690037e-08 -4.19832780560699e-07 -0.000167144658489615
97 Au                    0               10.165               -1.198 -1.6750858083869e-09 -1.97047133014592e-09 -9.79053260964377e-09 -1.06067491473863e-05
98 Au                2.934               10.165               -1.198 1.01562847762972e-07 -1.42470235910261e-07 -2.9738756257131e-07 -0.000115967630703012
99 Au                5.869               10.165               -1.198 5.17042367308156e-08 -7.15676458703445e-08 -1.42043630923294e-07 -0.000110073773326027
100 Au                8.803               10.165               -1.198 4.44515239783096e-08 2.40713211474517e-08 -3.43423937436471e-07 -0.000159084621186998
101 Au               11.738               10.165               -1.198 -3.61283352308823e-08 -1.09084956543842e-08 -6.79472643891382e-07 -0.000224984219167692
102 Au               14.672               10.165               -1.198 -3.66998562885756e-08 -3.14187959227425e-08 -2.59357319306606e-07 -0.000124192077071969
103 Au                1.467               12.707               -1.198 2.69523792267806e-08 -1.64922225088126e-08 3.54477904358242e-09 1.73505483532371e-05
104 Au                4.402               12.707               -1.198 8.20118219048392e-08 6.56446798091577e-08 -1.11807496445423e-07 -6.93567473019803e-05
105 Au                7.336               12.707               -1.198 -2.36968401830898e-08 4.13255636325897e-08 -4.69094143505397e-07 -0.000175135327222693
106 Au               10.271               12.707               -1.198 -3.3231926645389e-08 -5.70247437484402e-08 -3.92200270338022e-07 -0.000175607197212185
107 Au               13.205               12.707               -1.198 -5.30708185203499e-08 -1.09718115455517e-07 -4.41872011040937e-07 -0.000172784771377981
108 Au                16.14               12.707               -1.198 1.59318230318814e-08 1.42533432876014e-08 -3.05736331113353e-08 -5.14534696734008e-05
109 Au                1.467                0.847                1.198 -6.35557431747481e-08 -1.78055797338763e-07 3.75301529698687e-07 -0.00017240915424797
110 Au                4.402                0.847                1.198 2.46111253726043e-08 1.24449364359083e-07 1.88042936281636e-07 -0.000110128205645658
111 Au                7.336                0.847                1.198 1.03575573574656e-08 1.30745682936608e-07 8.80123144763333e-08 -7.57054611357187e-05
112 Au               10.271                0.847                1.198 6.62433707557197e-08 7.46958373241486e-08 2.92559066661546e-08 -6.88971982672204e-05
113 Au               13.205                0.847                1.198 -2.29652978939303e-07 -1.06956237781597e-07 4.65744382164065e-07 -0.000186237730120532
114 Au                16.14                0.847                1.198 9.80413377175631e-08 -6.20482363484468e-08 4.11127038747702e-07 -0.00016986954368101
115 Au                    0                3.388                1.198 -6.36100566201222e-08 -8.16323050591201e-09 2.17769910844686e-07 -0.00012305747007069
116 Au                2.934                3.388                1.198 7.78631312146134e-08 1.38418226262177e-07 3.71381437033499e-07 -0.000157761208738123
117 Au                5.869                3.388                1.198 -1.02079447609061e-07 -1.46630881804709e-07  1.0714272937197e-06 -0.000287168760464425
118 Au                8.803                3.388                1.198 -5.27194767438639e-08 -1.07731608609468e-07 2.61769034307325e-07 -0.000150202619309425
119 Au               11.738                3.388                1.198 -1.42419759230947e-08 -1.11968050986582e-08 1.58581546410024e-08 -4.7982959641691e-05
120 Au               14.672                3.388                1.198 1.78810880516698e-07 8.92315225476093e-08 2.77787232544283e-07 -0.000130698740320557
121 Au                1.467                 5.93                1.198 -3.01149600325616e-08 5.31395976859131e-08 1.14818549323411e-08 3.70385293721083e-05
122 Au                4.402                 5.93                1.198 -1.02032927182446e-07 -5.3432935277704e-08 6.88353925701312e-07 -0.000225589717800789
123 Au                7.336                 5.93                1.198 1.06654515167756e-07 6.07677699373283e-08 1.02340156208473e-06 -0.000268282949841287
124 Au               10.271                 5.93                1.198 -3.51062461414115e-08 2.77418856121713e-08 7.61802275661827e-07 -0.000228990281606986
125 Au               13.205                 5.93                1.198 -1.11768653027007e-08 2.28627828623954e-08 5.56514776239794e-07 -0.000185572384988633
126 Au                16.14                 5.93                1.198 -9.38626741535472e-08 -8.04309531580503e-09 1.85426343907604e-07 -0.000102510698136011
127 Au                    0                8.471                1.198 4.64255934390233e-08 -3.25350713983794e-08 9.24065105802665e-09 4.83210969928656e-05
128 Au                2.934                8.471                1.198  2.6581733444504e-08 -6.61862487777193e-10 2.94984350016393e-09 -1.97999062535904e-05
129 Au                5.869                8.471                1.198 -6.59643437855689e-08 9.25486011132376e-08 6.30576602471828e-07 -0.000219392500649191
130 Au                8.803                8.471                1.198 -1.16714855445813e-07 -2.60757905511372e-08 5.11135197242867e-07 -0.000190619265578791
131 Au               11.738                8.471                1.198 -1.22176491877566e-08 -7.65375441741216e-08 3.02612213287455e-07 -0.000127792024721577
132 Au               14.672                8.471                1.198  1.5307184441747e-08 -9.34826185848914e-09 2.19644501982014e-07 -0.000110951601262531
133 Au                1.467               11.012                1.198 -5.13299666784155e-08 5.71635703325224e-08  4.0449394714631e-07 -0.000148312152956086
134 Au                4.402               11.012                1.198 -1.44194959961236e-08 1.96187453215678e-08 8.00252939860053e-10 2.04314882427427e-05
135 Au                7.336               11.012                1.198 5.54997773476262e-08 -2.68408213505945e-08 5.38479556598251e-07 -0.000200066933651096
136 Au               10.271               11.012                1.198 -7.82284673145708e-08 4.99407580994141e-08 1.32691425701922e-07 -9.3211222475572e-05
137 Au               13.205               11.012                1.198 -6.06227469966617e-08 3.35568335681464e-08 3.23208964496908e-07 -0.000132383943453999
138 Au                16.14               11.012                1.198 3.82708107768617e-08 -1.88330940293315e-08 2.92170212146037e-07 -0.000137031100385022
139 Au                    0               13.554                1.198 1.45334495765313e-08 3.28285045556564e-08 5.93650995395752e-07 -0.000227546774369654
140 Au                2.934               13.554                1.198 -2.03422819610073e-08 5.22554990865088e-10 9.14181367124726e-09 -1.35935434198188e-05
141 Au                5.869               13.554                1.198 1.22560908235136e-08 -1.52905329029972e-08 2.89964270837428e-08 -1.98366435905997e-05
142 Au                8.803               13.554                1.198    6.97106405977e-09 -1.17655663143264e-07 1.41960625646632e-07 -7.62494425002661e-05
143 Au               11.738               13.554                1.198 1.19568461960009e-08 -5.92833180197027e-09 1.73031585696092e-07 -0.00010690354161379
144 Au               14.672               13.554                1.198 3.75882748976206e-08 3.75359752806063e-08 2.11411848308299e-07 -0.000126216934059429
145 Au                0.037                1.727                3.523 6.82678324180947e-06 8.89387006355666e-05 0.000210432972388606  0.00468980483632334
146 Au                3.046                  1.6                3.614 -6.43917161717511e-06 0.000109202400766913 0.000150634333616209  0.00435472542494371
147 Au                5.838                1.796                3.513 7.68909755013517e-06 -4.04620091603236e-05 0.000541013584499464  0.00701767100011242
148 Au                8.816                1.754                3.388 8.96106891176648e-05 -4.75637283956335e-05 0.000505548945546199  0.00706548528995059
149 Au               11.773                1.634                3.404 -1.53708808133965e-05 7.61516485371741e-05 0.000575341415473005  0.00738517274601498
150 Au                14.67                1.783                3.607 -4.38066143977016e-05 1.76640758930246e-05 7.41771535193427e-05  0.00348982856756967
151 Au                1.552                4.216                3.572 4.70722671615001e-05 -3.47693889342969e-05 0.000427672768743803  0.00665373373994734
152 Au                 4.35                4.176                3.609 3.36513410793812e-06 -1.03802998560955e-05 0.000529296888657599  0.00699240006246668
153 Au                7.268                4.275                3.509 4.95412007147376e-05 -1.61454933881597e-05 0.000166850019746162  0.00413790873584672
154 Au               10.295                4.282                  3.7 4.12895715409227e-05 -0.000116405046357797 0.000520006198650313   0.0079264776450826
155 Au               13.137                4.338                3.688 -8.44453236193321e-05 -7.81481798984596e-05 0.000293531852880287  0.00628463540388625
156 Au                16.03                4.042                3.476 3.00982845982645e-05 4.34339264735337e-05 0.000400226325348404  0.00614375575911977
157 Au  -0.0889999999999986                6.804                 3.63 5.76034424300138e-05 1.89170816541042e-05 0.000114238040840835  0.00471523771201213
158 Au                3.074                 6.76                3.403 -8.71134640803837e-05 3.92129712824851e-05 0.000233250734462923  0.00510354184452578
159 Au                5.952                6.798                3.649 -7.22549666243153e-05 9.50131138013502e-05 0.000239812940191784  0.00511747636029241
160 Au                8.764                6.692                3.525 7.32648484648905e-05 6.12217570147179e-05   0.0005204100708745  0.00691717666249103
161 Au               11.735                6.794                3.633 3.87626691208159e-05 -8.4080391962301e-06 0.000659152839429923  0.00815729230389871
162 Au               14.708                6.729                3.541 -2.42862528363315e-05 -1.79961477235613e-06  0.00044545372500167  0.00684664960936987
163 Au                1.592                9.359                 3.52 3.13276913828963e-05 -5.71645295177371e-05 0.000153841031624792  0.00464283683301014
164 Au                 4.55                9.229                3.598 -1.77859163519192e-05 6.34633952923157e-05 0.000589829291347719  0.00778728274183281
165 Au                7.445                9.349                3.665 2.31986451084335e-06 3.43059958535573e-06 0.000726890849826501  0.00851292149466481
166 Au               10.271                9.322                3.668 2.84216272558285e-06 0.000101211232506644 0.000275792480478244  0.00599667116146723
167 Au               13.227                9.311                 3.55 -1.16738985331353e-05 -5.1501196913153e-05 0.000238944618648575  0.00530408921837237
168 Au               16.136                9.432                3.544 1.59488946071532e-05 -2.09878366542661e-05 0.000288952839642418   0.0055362017560512
169 Au                 0.07               11.971                3.572 1.24034741937887e-05 1.72237041490951e-05 0.000281584591534674  0.00517378371714946
170 Au                2.874               11.904                 3.64 0.000149063609972361 7.81941179501645e-06 0.000186386115073317  0.00510429896286796
171 Au                5.883                11.81                3.485 -4.87043796705372e-05 -5.85441829788798e-05 0.000255454748545176  0.00534602411772183
172 Au                 8.93               11.891                3.513 3.41912607729439e-05 -4.02110973466182e-05 0.000588721579392192  0.00746825110534173
173 Au               11.957               11.875                 3.45 -5.08668339702835e-05 -3.36441672218397e-06 0.000244927195980124  0.00506111986427707
174 Au               14.758               12.051                3.668 -9.02524561201037e-06 1.56412975847939e-06 0.000165946025433938  0.00453910708012679
175 Au                1.531               14.473                3.511 2.16327257924234e-05 -3.67491738522969e-05  0.00028185172940773  0.00497342491254789
176 Au                4.554               14.332                3.623 -7.07376892829165e-06 -8.15233217895605e-06 -1.2423722544236e-05  0.00126397742367453
177 Au                7.437               14.428                3.639 4.21263552504747e-05 6.10710698003779e-05 6.31984398164062e-05  0.00367328506616022
178 Au               10.403               14.336                3.532 -3.77299114131404e-05 4.20513060591919e-05 7.72522656159493e-05  0.00362129165004497
179 Au               13.366               14.573                3.573 4.19092258751235e-05 -4.37082577333647e-05 0.000252709399399183  0.00507717674084197
180 Au                16.26               14.454                3.502 1.92101328727267e-06 -7.2546357075357e-06 0.000232307944040996  0.00455661141384303
181 Au   -0.126000000000001   -0.202999999999999                6.032  0.00147089919332559   0.0198328015079445   0.0740437612092186  -0.0817567528343438
182 Au                2.739               -0.388                 5.93   0.0343863158570702  0.00335605071003029    0.132741598221622   -0.115538365874186
183 Au                5.936                0.133                 5.91  -0.0149875325795884  -0.0447221273539074    0.194978197020532   -0.134808764751616
184 Au                8.986                0.108                5.886   0.0173306172074146  -0.0361156899767919    0.255541731055008   -0.149646991999308
185 Au               11.675                0.317                6.168  -0.0392198068012092  -0.0226290311373734    0.282506856992997   -0.167721354256858
186 Au               14.643  -0.0760000000000005                6.097   -0.029488121359879   0.0265797498260226    0.193416299646016   -0.135131048097562
187 Au                1.633                2.358                5.927   0.0319451647965123  -0.0237433668528089    0.213275107442925   -0.136644452131023
188 Au                 4.39                2.299                 5.96   -0.019861547201631  -0.0104243920143557    0.219628877025491   -0.137664627018956
189 Au                7.264                2.379                6.027   0.0074216926299741  0.00855677280249429    0.136254140337693   -0.111616424353745
190 Au               10.161                2.627                5.832 -0.000312257215212189  0.00521300417913437    0.236775274791325   -0.137198387033716
191 Au               13.161                2.599                5.815   0.0413623569212737   0.0139530204680643    0.281876192943239   -0.154420369084867
192 Au               16.287                2.556                6.147  -0.0459390687314114 -0.00628754225402395    0.408739304062629   -0.194385156207612