LAMMPS (17 Apr 2024)
OMP_NUM_THREADS environment is not set. Defaulting to 1 thread. (src/comm.cpp:98)
  using 1 OpenMP thread(s) per MPI task
variable        DT              equal -10.0
variable        ETA             equal 1.6

# ----------------- Init Section -----------------

units           metal
boundary        p p p
atom_style      full

pair_style      coul/long 5.0
kspace_style    pppm/electrode 1.0e-6
kspace_modify   gewald 0.5

# ----------------- Atom Definition Section -----------------

read_data       system.data
Reading data file ...
  orthogonal box = (0 0 0) to (17.606959 15.248074 31.98)
  1 by 1 by 1 MPI processor grid
  reading atoms ...
  592 atoms
Finding 1-2 1-3 1-4 neighbors ...
  special bond factors lj:    0        0        0       
  special bond factors coul:  0        0        0       
     0 = max # of 1-2 neighbors
     0 = max # of 1-3 neighbors
     0 = max # of 1-4 neighbors
     1 = max # of special neighbors
  special bonds CPU = 0.001 seconds
  read_data CPU = 0.003 seconds
restart         100000 system.restart

# ----------------- Force Field Section -----------------

pair_coeff      * *

# O H Cs Cl Au
mass            1 16.0
mass            2 1.0
mass            3 132.90545
mass            4 35.5
mass            5 196.967

#----------------- Def groups and variables -----------------

group           slab type 5
216 atoms in group slab

# ----------------- Normal setting -----------------

neighbor        2.0 bin
neigh_modify    every 10 delay 0 check no

fix             fconq slab electrode/conq ${DT} ${ETA}
fix             fconq slab electrode/conq -10 ${ETA}
fix             fconq slab electrode/conq -10 1.6
216 atoms in group conp_group

dump            traj all custom 1 dump.lammpstrj id element xu yu zu fx fy fz q
dump_modify     traj element O H Cs Cl Au sort id format float %20.15g

run             0

CITE-CITE-CITE-CITE-CITE-CITE-CITE-CITE-CITE-CITE-CITE-CITE-CITE

Your simulation uses code contributions which should be cited:

- kspace_style pppm/electrode command:

@article{Ahrens2021,
author = {Ahrens-Iwers, Ludwig J.V. and Mei{\ss}ner, Robert H.},
doi = {10.1063/5.0063381},
title = {{Constant potential simulations on a mesh}},
journal = {Journal of Chemical Physics},
year = {2021}
volume = {155},
pages = {104104},
}
- fix electrode command:

@article{Ahrens2022
author = {Ahrens-Iwers, Ludwig J.V. and Janssen, Mahijs and Tee, Shern R. and Mei{\ss}ner, Robert H.},
doi = {10.1063/5.0099239},
title = {{ELECTRODE: An electrochemistry package for LAMMPS}},
journal = {The Journal of Chemical Physics},
year = {2022}
volume = {157},
pages = {084801},
}
CITE-CITE-CITE-CITE-CITE-CITE-CITE-CITE-CITE-CITE-CITE-CITE-CITE

WARNING: No fixes with time integration, atoms won't move (src/verlet.cpp:60)
PPPM/electrode initialization ...
  using 12-bit tables for long-range coulomb (src/kspace.cpp:342)
  G vector (1/distance) = 0.5
  grid = 36 32 60
  stencil order = 5
  estimated absolute RMS force accuracy = 0.0016630429
  estimated relative force accuracy = 0.00011549194
  using double precision KISS FFT
  3d grid and FFT values/proc = 127305 69120
Generated 0 of 10 mixed pair_coeff terms from geometric mixing rule
Neighbor list info ...
  update: every = 10 steps, delay = 0 steps, check = no
  max neighbors/atom: 2000, page size: 100000
  master list distance cutoff = 7
  ghost atom cutoff = 7
  binsize = 3.5, bins = 6 5 10
  2 neighbor lists, perpetual/occasional/extra = 2 0 0
  (1) pair coul/long, perpetual
      attributes: half, newton on
      pair build: half/bin/newton
      stencil: half/bin/3d
      bin: standard
  (2) fix electrode/conq, perpetual, copy from (1)
      attributes: half, newton on
      pair build: copy
      stencil: none
      bin: none
Per MPI rank memory allocation (min/avg/max) = 17.7 | 17.7 | 17.7 Mbytes
   Step          Temp          E_pair         E_mol          TotEng         Press     
         0   0             -1114.9377      0             -1114.9377     -70279.197    
Loop time of 1.42e-06 on 1 procs for 0 steps with 592 atoms

140.8% CPU use with 1 MPI tasks x 1 OpenMP threads

MPI task timing breakdown:
Section |  min time  |  avg time  |  max time  |%varavg| %total
---------------------------------------------------------------
Pair    | 0          | 0          | 0          |   0.0 |  0.00
Bond    | 0          | 0          | 0          |   0.0 |  0.00
Kspace  | 0          | 0          | 0          |   0.0 |  0.00
Neigh   | 0          | 0          | 0          |   0.0 |  0.00
Comm    | 0          | 0          | 0          |   0.0 |  0.00
Output  | 0          | 0          | 0          |   0.0 |  0.00
Modify  | 0          | 0          | 0          |   0.0 |  0.00
Other   |            | 1.42e-06   |            |       |100.00

Nlocal:            592 ave         592 max         592 min
Histogram: 1 0 0 0 0 0 0 0 0 0
Nghost:           2163 ave        2163 max        2163 min
Histogram: 1 0 0 0 0 0 0 0 0 0
Neighs:          30162 ave       30162 max       30162 min
Histogram: 1 0 0 0 0 0 0 0 0 0

Total # of neighbors = 30162
Ave neighs/atom = 50.949324
Ave special neighs/atom = 0
Neighbor list builds = 0
Dangerous builds not checked
write_data      after_system.data nocoeff
System init for write_data ...
PPPM/electrode initialization ...
  using 12-bit tables for long-range coulomb (src/kspace.cpp:342)
  G vector (1/distance) = 0.5
  grid = 36 32 60
  stencil order = 5
  estimated absolute RMS force accuracy = 0.0016630292
  estimated relative force accuracy = 0.00011549099
  using double precision KISS FFT
  3d grid and FFT values/proc = 127305 69120
Generated 0 of 10 mixed pair_coeff terms from geometric mixing rule
Total wall time: 0:00:00
