(written by ASE)

592 atoms
5 atom types

0.0           17.6069588515  xlo xhi
0.0           15.2480736488  ylo yhi
0.0                   31.98  zlo zhi

Atoms # full

     1   0   5 -0.113642                   1.641     0.90700000000000003                  -6.109
     2   0   5 -0.164954                   4.468     0.82299999999999995     -6.1520000000000001
     3   0   5 -0.124632      7.3399999999999999     0.80600000000000005                  -5.843
     4   0   5 -0.0772673                  10.208     0.68700000000000006     -6.2679999999999998
     5   0   5 -0.0716609                  13.118     0.78800000000000003                  -6.069
     6   0   5 -0.0685317      16.207999999999998      1.0840000000000001     -5.8780000000000001
     7   0   5 -0.123064                  -0.104      3.5129999999999999     -6.0140000000000002
     8   0   5 -0.187665      2.8599999999999999      3.1890000000000001     -5.9050000000000002
     9   0   5 -0.172398      5.8170000000000002      3.2280000000000002                  -6.048
    10   0   5 -0.0846356      9.1809999999999992      3.2879999999999998     -5.9960000000000004
    11   0   5 -0.000927368                  11.978                   3.536     -6.0380000000000003
    12   0   5 -0.0523978      14.755000000000001                   3.415     -5.9020000000000001
    13   0   5 -0.186315      1.4390000000000001      5.8490000000000002     -6.0259999999999998
    14   0   5 -0.160178      4.4119999999999999      5.9359999999999999     -5.8929999999999998
    15   0   5 -0.186174      7.4050000000000002                   5.694                  -6.133
    16   0   5 -0.114235                  10.179      5.9690000000000003     -6.0300000000000002
    17   0   5 -0.0631273      13.148999999999999      6.0720000000000001     -6.3879999999999999
    18   0   5 -0.0786232      16.059999999999999      5.8769999999999998     -5.9699999999999998
    19   0   5 -0.162236                   0.161      8.6639999999999997     -6.0140000000000002
    20   0   5 -0.187994      3.0569999999999999      8.3689999999999998     -6.0880000000000001
    21   0   5 -0.233604      5.9800000000000004      8.3460000000000001                  -6.298
    22   0   5 -0.136701                   8.798      8.6449999999999996     -6.0730000000000004
    23   0   5 -0.118488                  11.943      8.4529999999999994     -6.2320000000000002
    24   0   5 -0.118984                  14.916      8.4600000000000009     -6.0880000000000001
    25   0   5 -0.227629                   1.532                   11.18     -6.0149999999999997
    26   0   5 -0.180995      4.5919999999999996      10.898999999999999                  -5.867
    27   0   5 -0.199787      7.4740000000000002      11.007999999999999     -6.1699999999999999
    28   0   5 -0.172012      10.436999999999999                  10.942     -6.1200000000000001
    29   0   5 -0.174446      13.297000000000001      10.944000000000001     -6.0060000000000002
    30   0   5 -0.161171      16.204999999999998                  11.161     -5.9050000000000002
    31   0   5 -0.148119    0.032000000000000001      13.699999999999999     -6.1509999999999998
    32   0   5 -0.151836                   2.964                   13.66     -5.7789999999999999
    33   0   5 -0.213557      5.8239999999999998      13.656000000000001     -6.0350000000000001
    34   0   5 -0.174315                    8.75      13.499000000000001     -6.0339999999999998
    35   0   5 -0.135734      11.696999999999999                    13.4     -5.9260000000000002
    36   0   5 -0.100346      14.651999999999999                   13.48     -5.8689999999999998
    37   0   5 0.00466611   -0.085999999999999993      1.6870000000000001     -3.5249999999999999
    38   0   5 0.00864629      2.9580000000000002                   1.601     -3.5110000000000001
    39   0   5 0.00860487      5.7240000000000002      1.7030000000000001     -3.6469999999999998
    40   0   5 0.00432807      8.9529999999999994      1.6910000000000001     -3.6070000000000002
    41   0   5 0.00503321                  11.778      1.5649999999999999     -3.5649999999999999
    42   0   5 0.00237113                   14.51      1.6870000000000001     -3.6019999999999999
    43   0   5 0.00481916      1.5700000000000001      4.2590000000000003                  -3.476
    44   0   5 0.00390804      4.4119999999999999                    4.29     -3.5059999999999998
    45   0   5 0.00368654      7.3600000000000003      4.2699999999999996     -3.5920000000000001
    46   0   5 0.00394238      10.313000000000001      4.2789999999999999     -3.6640000000000001
    47   0   5 0.00185186      13.263999999999999                   4.282     -3.5179999999999998
    48   0   5 0.0057928      16.079999999999998      4.2300000000000004     -3.6339999999999999
    49   0   5 0.00429318   -0.056000000000000001      6.8529999999999998     -3.5539999999999998
    50   0   5 0.00674706                   2.871      6.7539999999999996     -3.6139999999999999
    51   0   5 0.00699532      5.9619999999999997      6.9390000000000001     -3.7120000000000002
    52   0   5 0.00551621      8.8490000000000002      6.8879999999999999                  -3.673
    53   0   5 0.00413694      11.840999999999999      6.8129999999999997     -3.6789999999999998
    54   0   5 0.00457498                  14.696      6.8570000000000002     -3.6259999999999999
    55   0   5 0.00635117      1.4219999999999999      9.3149999999999995     -3.7029999999999998
    56   0   5 0.00610409      4.2770000000000001      9.3369999999999997     -3.4420000000000002
    57   0   5 0.00811974      7.2130000000000001      9.3940000000000001     -3.6920000000000002
    58   0   5 0.00573832      10.284000000000001      9.3879999999999999     -3.4769999999999999
    59   0   5 0.00598297      13.119999999999999      9.2840000000000007     -3.5870000000000002
    60   0   5 0.00542702      16.091000000000001      9.2859999999999996     -3.5329999999999999
    61   0   5 0.00639201                   0.019                  11.884     -3.5680000000000001
    62   0   5 0.00491231      3.0800000000000001                  11.788     -3.6920000000000002
    63   0   5 0.00640796      6.0209999999999999      11.891999999999999     -3.6440000000000001
    64   0   5 0.00695505      8.9480000000000004      11.813000000000001     -3.6059999999999999
    65   0   5 0.00630476                  11.818      11.813000000000001                  -3.488
    66   0   5 0.0068911      14.595000000000001                  11.804                  -3.629
    67   0   5 0.00700315      1.4119999999999999                  14.474     -3.4300000000000002
    68   0   5 0.00744195      4.5019999999999998      14.382999999999999     -3.4079999999999999
    69   0   5 0.00652128      7.3280000000000003                  14.397     -3.5179999999999998
    70   0   5 0.0065429      10.356999999999999                   14.35     -3.6259999999999999
    71   0   5 0.00515484                  13.137      14.407999999999999     -3.6850000000000001
    72   0   5 0.00529177                  16.218                  14.516                  -3.694
    73   0   5 -0.00498909                       0                       0                  -1.198
    74   0   5 -0.00497377      2.9340000000000002                       0                  -1.198
    75   0   5 -0.00496586      5.8689999999999998                       0                  -1.198
    76   0   5 -0.00485967      8.8030000000000008                       0                  -1.198
    77   0   5 -0.00491888                  11.738                       0                  -1.198
    78   0   5 -0.00484702      14.672000000000001                       0                  -1.198
    79   0   5 -0.00482786      1.4670000000000001      2.5409999999999999                  -1.198
    80   0   5 -0.00489259      4.4020000000000001      2.5409999999999999                  -1.198
    81   0   5 -0.00478834      7.3360000000000003      2.5409999999999999                  -1.198
    82   0   5 -0.00491966      10.271000000000001      2.5409999999999999                  -1.198
    83   0   5 -0.00489338                  13.205      2.5409999999999999                  -1.198
    84   0   5 -0.0048084      16.140000000000001      2.5409999999999999                  -1.198
    85   0   5 -0.00477856                       0      5.0830000000000002                  -1.198
    86   0   5 -0.0048668      2.9340000000000002      5.0830000000000002                  -1.198
    87   0   5 -0.00472145      5.8689999999999998      5.0830000000000002                  -1.198
    88   0   5 -0.00478216      8.8030000000000008      5.0830000000000002                  -1.198
    89   0   5 -0.00486657                  11.738      5.0830000000000002                  -1.198
    90   0   5 -0.00487323      14.672000000000001      5.0830000000000002                  -1.198
    91   0   5 -0.00483232      1.4670000000000001      7.6239999999999997                  -1.198
    92   0   5 -0.00482234      4.4020000000000001      7.6239999999999997                  -1.198
    93   0   5 -0.0048944      7.3360000000000003      7.6239999999999997                  -1.198
    94   0   5 -0.00486573      10.271000000000001      7.6239999999999997                  -1.198
    95   0   5 -0.00495749                  13.205      7.6239999999999997                  -1.198
    96   0   5 -0.00490834      16.140000000000001      7.6239999999999997                  -1.198
    97   0   5 -0.00473283                       0      10.164999999999999                  -1.198
    98   0   5 -0.00484124      2.9340000000000002      10.164999999999999                  -1.198
    99   0   5 -0.0048593      5.8689999999999998      10.164999999999999                  -1.198
   100   0   5 -0.00489365      8.8030000000000008      10.164999999999999                  -1.198
   101   0   5 -0.00496799                  11.738      10.164999999999999                  -1.198
   102   0   5 -0.00485443      14.672000000000001      10.164999999999999                  -1.198
   103   0   5 -0.00472703      1.4670000000000001      12.707000000000001                  -1.198
   104   0   5 -0.00481329      4.4020000000000001      12.707000000000001                  -1.198
   105   0   5 -0.00490636      7.3360000000000003      12.707000000000001                  -1.198
   106   0   5 -0.0049165      10.271000000000001      12.707000000000001                  -1.198
   107   0   5 -0.00490581                  13.205      12.707000000000001                  -1.198
   108   0   5 -0.0048028      16.140000000000001      12.707000000000001                  -1.198
   109   0   5 0.00455694      1.4670000000000001     0.84699999999999998                   1.198
   110   0   5 0.00462781      4.4020000000000001     0.84699999999999998                   1.198
   111   0   5 0.00466384      7.3360000000000003     0.84699999999999998                   1.198
   112   0   5 0.00466913      10.271000000000001     0.84699999999999998                   1.198
   113   0   5 0.00456002                  13.205     0.84699999999999998                   1.198
   114   0   5 0.00457658      16.140000000000001     0.84699999999999998                   1.198
   115   0   5 0.00462069                       0      3.3879999999999999                   1.198
   116   0   5 0.00459828      2.9340000000000002      3.3879999999999999                   1.198
   117   0   5 0.00446307      5.8689999999999998      3.3879999999999999                   1.198
   118   0   5 0.00458934      8.8030000000000008      3.3879999999999999                   1.198
   119   0   5 0.00468474                  11.738      3.3879999999999999                   1.198
   120   0   5 0.00461419      14.672000000000001      3.3879999999999999                   1.198
   121   0   5 0.00476321      1.4670000000000001      5.9299999999999997                   1.198
   122   0   5 0.00452135      4.4020000000000001      5.9299999999999997                   1.198
   123   0   5 0.00446989      7.3360000000000003      5.9299999999999997                   1.198
   124   0   5 0.00451687      10.271000000000001      5.9299999999999997                   1.198
   125   0   5 0.0045698                  13.205      5.9299999999999997                   1.198
   126   0   5 0.00464254      16.140000000000001      5.9299999999999997                   1.198
   127   0   5 0.00476725                       0      8.4710000000000001                   1.198
   128   0   5 0.0047028      2.9340000000000002      8.4710000000000001                   1.198
   129   0   5 0.00451741      5.8689999999999998      8.4710000000000001                   1.198
   130   0   5 0.00454458      8.8030000000000008      8.4710000000000001                   1.198
   131   0   5 0.00461433                  11.738      8.4710000000000001                   1.198
   132   0   5 0.00463271      14.672000000000001      8.4710000000000001                   1.198
   133   0   5 0.00459602      1.4670000000000001                  11.012                   1.198
   134   0   5 0.00474735      4.4020000000000001                  11.012                   1.198
   135   0   5 0.00453815      7.3360000000000003                  11.012                   1.198
   136   0   5 0.00465141      10.271000000000001                  11.012                   1.198
   137   0   5 0.00460972                  13.205                  11.012                   1.198
   138   0   5 0.00459753      16.140000000000001                  11.012                   1.198
   139   0   5 0.00451114                       0                  13.554                   1.198
   140   0   5 0.00471782      2.9340000000000002                  13.554                   1.198
   141   0   5 0.00472597      5.8689999999999998                  13.554                   1.198
   142   0   5 0.00467358      8.8030000000000008                  13.554                   1.198
   143   0   5 0.00462848                  11.738                  13.554                   1.198
   144   0   5 0.00460391      14.672000000000001                  13.554                   1.198
   145   0   5 0.00451882    0.036999999999999998      1.7270000000000001      3.5230000000000001
   146   0   5 0.00412881      3.0459999999999998      1.6000000000000001      3.6139999999999999
   147   0   5 0.00680205      5.8380000000000001                   1.796      3.5129999999999999
   148   0   5 0.00682537      8.8160000000000007                   1.754      3.3879999999999999
   149   0   5 0.00712064                  11.773      1.6339999999999999      3.4039999999999999
   150   0   5 0.00323801                   14.67      1.7829999999999999      3.6070000000000002
   151   0   5 0.00640139                   1.552      4.2160000000000002      3.5720000000000001
   152   0   5 0.00673844      4.3499999999999996      4.1760000000000002                   3.609
   153   0   5 0.00393669      7.2679999999999998      4.2750000000000004      3.5089999999999999
   154   0   5 0.00774699                  10.295                   4.282      3.7000000000000002
   155   0   5 0.00605849                  13.137      4.3380000000000001      3.6880000000000002
   156   0   5 0.00591533      16.030000000000001      4.0419999999999998                   3.476
   157   0   5 0.00455756   -0.088999999999999996      6.8040000000000003      3.6299999999999999
   158   0   5 0.00488714      3.0739999999999998      6.7599999999999998                   3.403
   159   0   5 0.00493901                   5.952                   6.798                   3.649
   160   0   5 0.00672417      8.7639999999999993      6.6920000000000002      3.5249999999999999
   161   0   5 0.00789526      11.734999999999999      6.7939999999999996                   3.633
   162   0   5 0.00659531                  14.708      6.7290000000000001      3.5409999999999999
   163   0   5 0.00437054      1.5920000000000001                   9.359                    3.52
   164   0   5 0.00759291      4.5499999999999998      9.2289999999999992      3.5979999999999999
   165   0   5 0.00829559      7.4450000000000003      9.3490000000000002                   3.665
   166   0   5 0.00579684      10.271000000000001      9.3219999999999992      3.6680000000000001
   167   0   5 0.00513353                  13.227      9.3109999999999999      3.5499999999999998
   168   0   5 0.00530675      16.135999999999999      9.4320000000000004                   3.544
   169   0   5 0.00495952    0.070000000000000007                  11.971      3.5720000000000001
   170   0   5 0.00491356      2.8740000000000001                  11.904      3.6400000000000001
   171   0   5 0.00513188                   5.883                   11.81      3.4849999999999999
   172   0   5 0.00723879      8.9299999999999997                  11.891      3.5129999999999999
   173   0   5 0.0047993      11.957000000000001                  11.875      3.4500000000000002
   174   0   5 0.00434741      14.757999999999999                  12.051      3.6680000000000001
   175   0   5 0.00477389      1.5309999999999999      14.473000000000001      3.5110000000000001
   176   0   5 0.0010321      4.5540000000000003      14.332000000000001      3.6230000000000002
   177   0   5 0.00348539      7.4370000000000003      14.428000000000001      3.6389999999999998
   178   0   5 0.00339855                  10.403                  14.336                   3.532
   179   0   5 0.0049161                  13.366                  14.573                   3.573
   180   0   5 0.0043041      16.260000000000002      14.454000000000001      3.5019999999999998
   181   0   5 -0.0812409                  -0.126    -0.20300000000000001                   6.032
   182   0   5 -0.11499      2.7389999999999999    -0.38800000000000001      5.9299999999999997
   183   0   5 -0.134364      5.9359999999999999     0.13300000000000001      5.9100000000000001
   184   0   5 -0.14916      8.9860000000000007                   0.108      5.8860000000000001
   185   0   5 -0.167057      11.675000000000001                   0.317      6.1680000000000001
   186   0   5 -0.134598      14.643000000000001   -0.075999999999999998      6.0970000000000004
   187   0   5 -0.136185                   1.633      2.3580000000000001      5.9269999999999996
   188   0   5 -0.137138      4.3899999999999997      2.2989999999999999                    5.96
   189   0   5 -0.111108      7.2640000000000002                   2.379      6.0270000000000001
   190   0   5 -0.136755                  10.161      2.6269999999999998      5.8319999999999999
   191   0   5 -0.153995                  13.161      2.5990000000000002      5.8150000000000004
   192   0   5 -0.193725      16.286999999999999                   2.556      6.1470000000000002
   193   0   5 -0.120393   -0.035999999999999997      4.9909999999999997      6.0609999999999999
   194   0   5 -0.148035      2.7770000000000001      4.8689999999999998      6.0860000000000003
   195   0   5 -0.153226      5.4409999999999998                   4.867                   6.165
   196   0   5 -0.133177      8.5969999999999995      4.9320000000000004                    5.96
   197   0   5 -0.198341      11.702999999999999      5.0529999999999999      6.1219999999999999
   198   0   5 -0.18017                  14.843      5.1239999999999997                   5.984
   199   0   5 -0.149916      1.6060000000000001      7.4770000000000003      5.7160000000000002
   200   0   5 -0.175719      4.6420000000000003                   7.524      6.1200000000000001
   201   0   5 -0.176471                   7.556      7.7039999999999997                   6.157
   202   0   5 -0.176796                  10.166                   7.319                   6.048
   203   0   5 -0.195026                  13.116      7.5519999999999996      5.9610000000000003
   204   0   5 -0.149551      16.039999999999999      7.7450000000000001      5.9550000000000001
   205   0   5 -0.137977    0.086999999999999994      10.032999999999999      5.9320000000000004
   206   0   5 -0.158816      3.1000000000000001      9.9380000000000006      5.9349999999999996
   207   0   5 -0.154899                   5.944                  10.058                   6.085
   208   0   5 -0.191822      8.8190000000000008      10.101000000000001      6.2199999999999998
   209   0   5 -0.161471                  11.637      10.071999999999999      6.0179999999999998
   210   0   5 -0.123751                  14.555                  10.301      5.9610000000000003
   211   0   5 -0.134199      1.3240000000000001                  12.535      6.1319999999999997
   212   0   5 -0.170405      4.3890000000000002                  12.493      5.8929999999999998
   213   0   5 -0.148559      7.4630000000000001                  12.647      5.9290000000000003
   214   0   5 -0.173261                   10.27      12.566000000000001                   6.032
   215   0   5 -0.120045                  13.137      12.928000000000001      5.8650000000000002
   216   0   5 -0.0785725                  16.084                  12.586      6.0599999999999996
   217   0   3   1.0      7.1769999999999996      13.837999999999999      11.531000000000001
   218   0   3   1.0      7.3179999999999996      8.4009999999999998                  10.355
   219   0   3   1.0      4.1689999999999996                  13.593      8.9960000000000004
   220   0   3   1.0                  13.977      2.2999999999999998      8.8620000000000001
   221   0   3   1.0                  10.212      14.085000000000001      8.9299999999999997
   222   0   3   1.0      14.752000000000001      6.2480000000000002      9.3460000000000001
   223   0   3   1.0      1.4259999999999999      7.7629999999999999      9.1379999999999999
   224   0   3   1.0      4.9130000000000003                   5.524      10.348000000000001
   225   0   4  -1.0                   1.526                  14.645                  11.058
   226   0   4  -1.0      9.9309999999999992                  15.948      11.592000000000001
   227   0   4  -1.0                  15.669      15.319000000000001                  10.648
   228   0   3   1.0                  13.321      16.286999999999999                  -10.65
   229   0   3   1.0                  15.807                  11.202     -9.5500000000000007
   230   0   3   1.0      2.6190000000000002                  10.134     -9.4260000000000002
   231   0   3   1.0      2.9569999999999999                   5.742                 -11.609
   232   0   3   1.0      5.4219999999999997      8.3260000000000005     -10.606999999999999
   233   0   3   1.0                    4.21     0.56299999999999994     -10.470000000000001
   234   0   3   1.0      8.6229999999999993                  10.545     -10.143000000000001
   235   0   3   1.0                  11.259      13.486000000000001     -9.5120000000000005
   236   0   4  -1.0      14.787000000000001      13.688000000000001     -11.523999999999999
   237   0   4  -1.0                  12.988      3.6709999999999998                 -12.856
   238   0   4  -1.0                  11.388      3.5329999999999999     -8.8399999999999999
   239   0   1 -0.8476      12.854100000000001      7.1414900000000001      11.148300000000001
   240   0   2 0.4238      11.856299999999999      7.0938699999999999                 11.1943
   241   0   2 0.4238                 13.0708      7.7979700000000003      11.870900000000001
   242   0   1 -0.8476      7.8422299999999998      8.6922800000000002      13.645899999999999
   243   0   2 0.4238      6.9053500000000003      8.9109700000000007      13.918699999999999
   244   0   2 0.4238      8.0598399999999994      7.7188800000000004      13.717599999999999
   245   0   1 -0.8476                 12.1526                 12.9056                 15.8733
   246   0   2 0.4238                 12.6378                  12.263                 16.4663
   247   0   2 0.4238      12.902200000000001      13.263299999999999                 15.3163
   248   0   1 -0.8476      13.201000000000001                 14.5724      8.8884799999999995
   249   0   2 0.4238                  13.695      14.265499999999999      8.0749499999999994
   250   0   2 0.4238      13.693300000000001                 14.0807      9.6067599999999995
   251   0   1 -0.8476                 11.0524      2.4060899999999998      9.0109899999999996
   252   0   2 0.4238      10.515499999999999      2.2332900000000002      9.8367599999999999
   253   0   2 0.4238      10.429399999999999      2.4592800000000001      8.2305799999999998
   254   0   1 -0.8476                  16.887                 14.9833      15.388500000000001
   255   0   2 0.4238      17.283300000000001                 14.6503                 14.5329
   256   0   2 0.4238      16.827300000000001      15.979900000000001                 15.3322
   257   0   1 -0.8476      3.0145300000000002                 13.9313      14.633100000000001
   258   0   2 0.4238      3.4647999999999999      13.504300000000001      15.417299999999999
   259   0   2 0.4238                 2.86958      14.868399999999999                 14.9504
   260   0   1 -0.8476    -0.21854100000000001      13.484400000000001                 13.2186
   261   0   2 0.4238                0.288717      13.782299999999999                   12.41
   262   0   2 0.4238    -0.99200100000000002      12.972099999999999                 12.8453
   263   0   1 -0.8476                 12.0564      1.0900799999999999      14.584300000000001
   264   0   2 0.4238                 11.2149      1.6255999999999999                 14.5136
   265   0   2 0.4238                 12.7484                 1.63107                 15.0623
   266   0   1 -0.8476                 2.74281     0.81959199999999999      8.4179999999999993
   267   0   2 0.4238                 2.65578      1.4251799999999999      7.6269900000000002
   268   0   2 0.4238                 1.79908     0.91168899999999997      8.7356400000000001
   269   0   1 -0.8476      3.7895500000000002      4.1828599999999998      12.537599999999999
   270   0   2 0.4238      3.2657799999999999      3.3971800000000001                 12.8668
   271   0   2 0.4238      4.3905000000000003      4.3741599999999998      13.313599999999999
   272   0   1 -0.8476      5.9962799999999996                 12.8896                 14.2037
   273   0   2 0.4238      5.0992699999999997                 13.2346                 13.9274
   274   0   2 0.4238      6.3113400000000004      13.412100000000001      14.995900000000001
   275   0   1 -0.8476      10.091200000000001      7.5410300000000001      11.420299999999999
   276   0   2 0.4238                 10.1555      7.9863600000000003                 10.5273
   277   0   2 0.4238      10.224600000000001      8.2473299999999998      12.115500000000001
   278   0   1 -0.8476      2.9918399999999998      10.136100000000001                 10.7659
   279   0   2 0.4238      3.1167500000000001      10.583299999999999                 11.6515
   280   0   2 0.4238                 2.63863                 10.7515      10.061299999999999
   281   0   1 -0.8476      2.4094099999999998                 1.66289      12.950699999999999
   282   0   2 0.4238      2.2406000000000001      1.4453400000000001      13.912100000000001
   283   0   2 0.4238      2.2049599999999998     0.82058799999999998                  12.452
   284   0   1 -0.8476      1.2521599999999999      7.6036599999999996      16.074200000000001
   285   0   2 0.4238      1.8825099999999999      7.5438599999999996                 15.3002
   286   0   2 0.4238     0.66591100000000003                 8.40761      15.974299999999999
   287   0   1 -0.8476                 10.9964                 11.2121      9.5071499999999993
   288   0   2 0.4238                 11.8094      11.059200000000001      10.069000000000001
   289   0   2 0.4238                 11.1584                  10.612      8.7238699999999998
   290   0   1 -0.8476                 15.8477      3.0236999999999998      13.460900000000001
   291   0   2 0.4238      15.247299999999999                 3.81609                 13.5685
   292   0   2 0.4238      15.248100000000001      2.2437299999999998      13.281599999999999
   293   0   1 -0.8476                  6.8971     0.91786000000000001      14.948600000000001
   294   0   2 0.4238      6.1243299999999996                 1.03159      14.324199999999999
   295   0   2 0.4238      7.6278899999999998     0.32777200000000001      14.605499999999999
   296   0   1 -0.8476                 14.6486                 11.9732      8.9710099999999997
   297   0   2 0.4238                 14.2324                 11.7774      8.0830599999999997
   298   0   2 0.4238                 14.5299                 11.0893      9.4235600000000002
   299   0   1 -0.8476     0.98416099999999995                 4.27705      13.888500000000001
   300   0   2 0.4238     0.35105500000000001      5.0311300000000001                 14.0633
   301   0   2 0.4238     0.79839300000000002      4.0621400000000003                 12.9297
   302   0   1 -0.8476      4.3365499999999999      14.275399999999999                 11.7257
   303   0   2 0.4238      4.5377799999999997                 15.0556      12.318099999999999
   304   0   2 0.4238      3.3575900000000001                 14.3735                 11.9047
   305   0   1 -0.8476      8.6175300000000004                 11.5304      10.287100000000001
   306   0   2 0.4238      8.6213200000000008                 11.4819                 11.2859
   307   0   2 0.4238      9.5486199999999997                 11.3414      9.9750599999999991
   308   0   1 -0.8476                  16.904      5.6967699999999999                 15.4786