ITEM: TIMESTEP
0
ITEM: NUMBER OF ATOMS
218
ITEM: BOX BOUNDS pp pp pp
0.0000000000000000e+00 1.6869000000000000e+01
0.0000000000000000e+00 1.4609000000000000e+01
0.0000000000000000e+00 4.1478000000000002e+01
ITEM: ATOMS id element xu yu zu fx fy fz q
1 Pt 1.40573 0.811598 35.739 -0.000577172 -0.000612125 -19.8705 0.270591
2 Pt 4.21718 0.811598 35.739 5.76707e-05 -0.000610401 -19.8701 0.270585
3 Pt 7.02864 0.811598 35.739 -1.69563e-06 -0.000610538 -19.8702 0.270586
4 Pt 9.8401 0.811598 35.739 5.49616e-05 -0.000610814 -19.8701 0.270586
5 Pt 12.6516 0.811598 35.739 -0.000264424 -0.000610112 -19.87 0.270585
6 Pt 15.463 0.811598 35.739 0.000798464 -0.000611496 -19.8708 0.270595
7 Pt 0 3.24639 35.739 -0.0005806 1.14256e-05 -19.8702 0.270587
8 Pt 2.81146 3.24639 35.739 -5.71051e-06 1.27119e-05 -19.8693 0.270575
9 Pt 5.62291 3.24639 35.739 3.5978e-05 1.31965e-05 -19.8695 0.270577
10 Pt 8.43437 3.24639 35.739 -7.3845e-05 1.33115e-05 -19.8694 0.270576
11 Pt 11.2458 3.24639 35.739 0.000142445 1.25982e-05 -19.8694 0.270577
12 Pt 14.0573 3.24639 35.739 0.000413927 1.07135e-05 -19.8696 0.27058
13 Pt 1.40573 5.68118 35.739 -0.000577101 2.84869e-05 -19.8698 0.270582
14 Pt 4.21718 5.68118 35.739 5.84501e-05 3.09436e-05 -19.8695 0.270577
15 Pt 7.02864 5.68118 35.739 -1.69413e-06 3.03498e-05 -19.8696 0.270578
16 Pt 9.8401 5.68118 35.739 5.41737e-05 3.05372e-05 -19.8695 0.270578
17 Pt 12.6516 5.68118 35.739 -0.000264436 3.04708e-05 -19.8694 0.270577
18 Pt 15.463 5.68118 35.739 0.000798411 2.93648e-05 -19.8701 0.270587
19 Pt 0 8.11598 35.739 -0.000580759 5.74056e-05 -19.8704 0.270589
20 Pt 2.81146 8.11598 35.739 -4.7106e-06 5.88542e-05 -19.8695 0.270577
21 Pt 5.62291 8.11598 35.739 3.54703e-05 5.86613e-05 -19.8696 0.270579
22 Pt 8.43437 8.11598 35.739 -7.33383e-05 5.87755e-05 -19.8696 0.270578
23 Pt 11.2458 8.11598 35.739 0.000141445 5.87418e-05 -19.8696 0.270579
24 Pt 14.0573 8.11598 35.739 0.000414088 5.6684e-05 -19.8698 0.270582
25 Pt 1.40573 10.5508 35.739 -0.000576862 -7.89164e-05 -19.8699 0.270584
26 Pt 4.21718 10.5508 35.739 5.79114e-05 -7.77818e-05 -19.8695 0.270578
27 Pt 7.02864 10.5508 35.739 -1.69422e-06 -7.81048e-05 -19.8697 0.270579
28 Pt 9.8401 10.5508 35.739 5.47132e-05 -7.81889e-05 -19.8696 0.270579
29 Pt 12.6516 10.5508 35.739 -0.000264685 -7.6928e-05 -19.8695 0.270578
30 Pt 15.463 10.5508 35.739 0.000798421 -7.80348e-05 -19.8702 0.270588
31 Pt 0 12.9856 35.739 -0.00058093 0.000588946 -19.8709 0.270597
32 Pt 2.81146 12.9856 35.739 -5.49724e-06 0.00059014 -19.87 0.270585
33 Pt 5.62291 12.9856 35.739 3.56109e-05 0.00059022 -19.8702 0.270586
34 Pt 8.43437 12.9856 35.739 -7.34804e-05 0.000590333 -19.8702 0.270585
35 Pt 11.2458 12.9856 35.739 0.000142235 0.000590021 -19.8702 0.270586
36 Pt 14.0573 12.9856 35.739 0.000414257 0.000588248 -19.8703 0.27059
37 Pt 0 1.62319 38.0345 3.46741e-06 5.90853e-06 -0.05728 -0.0155477
38 Pt 2.81146 1.62319 38.0345 2.28738e-07 1.12966e-06 -0.057311 -0.0155511
39 Pt 5.62291 1.62319 38.0345 -5.52847e-08 1.24771e-06 -0.0573096 -0.0155509
40 Pt 8.43437 1.62319 38.0345 1.42418e-07 1.35914e-06 -0.05731 -0.0155509
41 Pt 11.2458 1.62319 38.0345 -1.31963e-06 2.20232e-06 -0.0573053 -0.0155504
42 Pt 14.0573 1.62319 38.0345 -6.73197e-07 -1.75221e-06 -0.0573119 -0.0155512
43 Pt 1.40573 4.05799 38.0345 1.41873e-06 -1.34262e-06 -0.0573087 -0.0155509
44 Pt 4.21718 4.05799 38.0345 -6.6178e-07 -5.40216e-07 -0.0573133 -0.0155511
45 Pt 7.02864 4.05799 38.0345 6.61671e-08 1.06341e-07 -0.0573118 -0.0155511
46 Pt 9.8401 4.05799 38.0345 5.17434e-07 -1.2928e-06 -0.0573145 -0.0155512
47 Pt 12.6516 4.05799 38.0345 8.21841e-07 1.13069e-06 -0.0573083 -0.0155508
48 Pt 15.463 4.05799 38.0345 -3.95517e-06 4.09326e-06 -0.0572858 -0.0155483
49 Pt 0 6.49278 38.0345 3.59471e-06 4.53443e-06 -0.0572808 -0.0155477
50 Pt 2.81146 6.49278 38.0345 -3.72032e-07 -6.37242e-07 -0.0573119 -0.0155509
51 Pt 5.62291 6.49278 38.0345 5.96354e-07 2.21094e-07 -0.0573103 -0.0155508
52 Pt 8.43437 6.49278 38.0345 -5.0921e-07 3.32516e-07 -0.0573107 -0.0155509
53 Pt 11.2458 6.49278 38.0345 -7.16557e-07 4.34277e-07 -0.0573062 -0.0155503
54 Pt 14.0573 6.49278 38.0345 -8.00507e-07 -3.12564e-06 -0.0573126 -0.0155512
55 Pt 1.40573 8.92757 38.0345 9.38565e-07 -2.01411e-06 -0.0573046 -0.0155503
56 Pt 4.21718 8.92757 38.0345 -2.94539e-08 -6.4404e-07 -0.0573087 -0.0155508
57 Pt 7.02864 8.92757 38.0345 6.61984e-08 -1.03605e-06 -0.0573078 -0.0155506
58 Pt 9.8401 8.92757 38.0345 -1.14898e-07 -1.39668e-06 -0.0573099 -0.0155509
59 Pt 12.6516 8.92757 38.0345 1.30195e-06 4.59122e-07 -0.0573043 -0.0155502
60 Pt 15.463 8.92757 38.0345 -3.95517e-06 3.73749e-06 -0.0572817 -0.0155478
61 Pt 0 11.3624 38.0345 3.4165e-06 4.78302e-06 -0.0572813 -0.0155478
62 Pt 2.81146 11.3624 38.0345 1.97929e-07 -4.35539e-08 -0.0573123 -0.0155511
63 Pt 5.62291 11.3624 38.0345 1.46238e-08 7.27147e-07 -0.0573111 -0.0155509
64 Pt 8.43437 11.3624 38.0345 7.25058e-08 8.38574e-07 -0.0573115 -0.0155509
65 Pt 11.2458 11.3624 38.0345 -1.2865e-06 1.028e-06 -0.0573066 -0.0155505
66 Pt 14.0573 11.3624 38.0345 -6.22213e-07 -2.87692e-06 -0.0573132 -0.0155512
67 Pt 1.40573 13.7972 38.0345 9.81462e-07 -6.03609e-06 -0.0572815 -0.0155477
68 Pt 4.21718 13.7972 38.0345 -9.81714e-08 -4.7809e-06 -0.0572857 -0.0155482
69 Pt 7.02864 13.7972 38.0345 6.61556e-08 -5.01589e-06 -0.0572846 -0.0155482
70 Pt 9.8401 13.7972 38.0345 -4.60811e-08 -5.53321e-06 -0.0572869 -0.0155483
71 Pt 12.6516 13.7972 38.0345 1.25924e-06 -3.56278e-06 -0.0572811 -0.0155476
72 Pt 15.463 13.7972 38.0345 -3.95489e-06 -3.64998e-07 -0.0572585 -0.0155452
73 Pt 0 0 40.3301 1.71737e-08 4.35995e-09 -0.000109325 0.000718994
74 Pt 2.81146 0 40.3301 1.61677e-08 3.14563e-09 -0.000109418 0.000719496
75 Pt 5.62291 0 40.3301 1.53413e-08 -2.56311e-08 -0.000109386 0.00072015
76 Pt 8.43437 0 40.3301 -1.48149e-08 -2.54753e-08 -0.000109387 0.000720155
77 Pt 11.2458 0 40.3301 -1.79618e-08 3.29332e-09 -0.000109409 0.000719473
78 Pt 14.0573 0 40.3301 -1.13178e-08 -2.36202e-09 -0.0001094 0.00071921
79 Pt 1.40573 2.43479 40.3301 8.05641e-08 4.14251e-08 -0.000109424 0.000719897
80 Pt 4.21718 2.43479 40.3301 9.79604e-08 2.0865e-07 -0.000109482 0.000721591
81 Pt 7.02864 2.43479 40.3301 2.91913e-10 -2.76324e-08 -0.000109489 0.000720717
82 Pt 9.8401 2.43479 40.3301 -1.00833e-07 2.08642e-07 -0.000109478 0.000721579
83 Pt 12.6516 2.43479 40.3301 -5.61882e-08 4.18235e-08 -0.00010946 0.000720008
84 Pt 15.463 2.43479 40.3301 -2.63922e-08 1.08959e-08 -0.000109412 0.000719217
85 Pt 0 4.86959 40.3301 8.03941e-08 4.27368e-08 -0.000109379 0.00071978
86 Pt 2.81146 4.86959 40.3301 7.83714e-07 4.50865e-07 -0.000109321 0.000726615
87 Pt 5.62291 4.86959 40.3301 -7.98713e-07 4.62305e-08 -0.00010972 0.000721556
88 Pt 8.43437 4.86959 40.3301 7.99251e-07 4.63899e-08 -0.000109721 0.000721561
89 Pt 11.2458 4.86959 40.3301 -7.85508e-07 4.51007e-07 -0.000109312 0.000726592
90 Pt 14.0573 4.86959 40.3301 -7.45424e-08 3.60184e-08 -0.000109454 0.000719995
91 Pt 1.40573 7.30438 40.3301 2.40627e-07 -1.14256e-08 -0.000109444 0.000721525
92 Pt 4.21718 7.30438 40.3301 -3.61971e-07 -7.14321e-07 -0.000109716 0.000721566
93 Pt 7.02864 7.30438 40.3301 2.90837e-10 -9.1706e-10 -0.000109227 0.000721163
94 Pt 9.8401 7.30438 40.3301 3.59094e-07 -7.14306e-07 -0.000109712 0.000721554
95 Pt 12.6516 7.30438 40.3301 -2.16221e-07 -1.10279e-08 -0.00010948 0.000721636
96 Pt 15.463 7.30438 40.3301 -2.63989e-08 1.566e-09 -0.000109413 0.000719498
97 Pt 0 9.73917 40.3301 6.65864e-08 5.0266e-09 -0.0001094 0.000719613
98 Pt 2.81146 9.73917 40.3301 -3.36099e-08 2.0836e-08 -0.000109491 0.000720793
99 Pt 5.62291 9.73917 40.3301 4.35423e-07 6.67904e-07 -0.0001097 0.000721519
100 Pt 8.43437 9.73917 40.3301 -4.34895e-07 6.68061e-07 -0.000109702 0.000721524
101 Pt 11.2458 9.73917 40.3301 3.18133e-08 2.09792e-08 -0.000109482 0.00072077
102 Pt 14.0573 9.73917 40.3301 -6.07316e-08 -1.69606e-09 -0.000109475 0.000719829
103 Pt 1.40573 12.174 40.3301 4.14084e-08 -5.24394e-08 -0.000109443 0.00071972
104 Pt 4.21718 12.174 40.3301 1.16921e-07 -1.98616e-07 -0.00010946 0.000721584
105 Pt 7.02864 12.174 40.3301 2.94228e-10 -9.09044e-07 -0.00010928 0.000726524
106 Pt 9.8401 12.174 40.3301 -1.19796e-07 -1.98614e-07 -0.000109456 0.000721572
107 Pt 12.6516 12.174 40.3301 -1.70295e-08 -5.20503e-08 -0.000109479 0.000719831
108 Pt 15.463 12.174 40.3301 -2.63969e-08 -1.09176e-08 -0.000109394 0.000719301
109 Pt 1.40573 0.811598 1.1476 -1.84977e-07 -4.70748e-08 0.000103087 -0.000699848
110 Pt 4.21718 0.811598 1.1476 -7.26805e-09 2.28702e-07 0.000103215 -0.000699404
111 Pt 7.02864 0.811598 1.1476 2.76858e-10 9.06242e-07 0.00010448 -0.000703196
112 Pt 9.8401 0.811598 1.1476 4.55253e-09 2.28687e-07 0.000103212 -0.000699392
113 Pt 12.6516 0.811598 1.1476 2.08194e-07 -4.74402e-08 0.000103122 -0.000699956
114 Pt 15.463 0.811598 1.1476 -2.51795e-08 -3.317e-08 0.000103468 -0.000701371
115 Pt 0 3.24639 1.1476 -1.04928e-07 -1.47659e-07 0.000103133 -0.000699925
116 Pt 2.81146 3.24639 1.1476 1.36527e-06 1.26468e-06 0.000108361 -0.000713231
117 Pt 5.62291 3.24639 1.1476 2.64923e-06 5.89727e-06 0.000118098 -0.000747725
118 Pt 8.43437 3.24639 1.1476 -2.64876e-06 5.89714e-06 0.000118099 -0.000747729
119 Pt 11.2458 3.24639 1.1476 -1.36686e-06 1.26456e-06 0.000108352 -0.00071321
120 Pt 14.0573 3.24639 1.1476 1.10478e-07 -1.4136e-07 0.000103204 -0.000700136
121 Pt 1.40573 5.68118 1.1476 1.80007e-06 5.63384e-07 0.000108382 -0.000713294
122 Pt 4.21718 5.68118 1.1476 2.7982e-05 1.61859e-05 0.000193939 -0.000925707
123 Pt 7.02864 5.68118 1.1476 3.7824e-10 -9.7423e-06 0.000118025 -0.00077603
124 Pt 9.8401 5.68118 1.1476 -2.79853e-05 1.61858e-05 0.000193935 -0.000925696
125 Pt 12.6516 5.68118 1.1476 -1.77683e-06 5.63028e-07 0.000108417 -0.000713402
126 Pt 15.463 5.68118 1.1476 -2.49944e-08 -1.44967e-07 0.000102868 -0.000698897
127 Pt 0 8.11598 1.1476 1.1708e-07 4.48569e-08 0.000103677 -0.000701075
128 Pt 2.81146 8.11598 1.1476 6.36236e-06 -5.95004e-07 0.000118425 -0.000748669
129 Pt 5.62291 8.11598 1.1476 -8.47594e-06 4.88558e-06 0.000118087 -0.000776195
130 Pt 8.43437 8.11598 1.1476 8.47648e-06 4.88539e-06 0.000118088 -0.000776199
131 Pt 11.2458 8.11598 1.1476 -6.36397e-06 -5.95202e-07 0.000118416 -0.000748647
132 Pt 14.0573 8.11598 1.1476 -1.11588e-07 5.12477e-08 0.000103748 -0.000701286
133 Pt 1.40573 10.5508 1.1476 5.83082e-07 -3.36668e-07 0.000105333 -0.000706209
134 Pt 4.21718 10.5508 1.1476 3.65317e-06 -5.24228e-06 0.000118313 -0.00074832
135 Pt 7.02864 10.5508 1.1476 3.55618e-10 -3.23582e-05 0.000193757 -0.000925243
136 Pt 9.8401 10.5508 1.1476 -3.65599e-06 -5.2421e-06 0.000118309 -0.000748308
137 Pt 12.6516 10.5508 1.1476 -5.59798e-07 -3.37058e-07 0.000105368 -0.000706317
138 Pt 15.463 10.5508 1.1476 -2.51403e-08 -2.37353e-08 0.000103484 -0.000701089
139 Pt 0 12.9856 1.1476 -1.43739e-08 8.14678e-09 0.000103554 -0.000701428
140 Pt 2.81146 12.9856 1.1476 -1.43263e-07 -1.35644e-07 0.000103663 -0.000700992
141 Pt 5.62291 12.9856 1.1476 3.20889e-07 -1.86393e-06 0.000108046 -0.00071206
142 Pt 8.43437 12.9856 1.1476 -3.20384e-07 -1.86409e-06 0.000108048 -0.000712064
143 Pt 11.2458 12.9856 1.1476 1.41594e-07 -1.35798e-07 0.000103655 -0.000700971
144 Pt 14.0573 12.9856 1.1476 1.99501e-08 1.45414e-08 0.000103625 -0.00070164
145 Pt 0 1.62319 3.4432 -5.04816e-05 -4.26317e-05 0.0544211 0.0151586
146 Pt 2.81146 1.62319 3.4432 -0.000131727 -5.97381e-05 0.053952 0.0150892
147 Pt 5.62291 1.62319 3.4432 -0.000107197 0.000152132 0.0539009 0.0150728
148 Pt 8.43437 1.62319 3.4432 0.00010728 0.000152028 0.0539013 0.0150729
149 Pt 11.2458 1.62319 3.4432 0.000130695 -6.07485e-05 0.0539466 0.0150886
150 Pt 14.0573 1.62319 3.4432 5.31532e-05 -3.5346e-05 0.0544514 0.015162
151 Pt 1.40573 4.05799 3.4432 -0.000185227 -0.000111331 0.0539512 0.0150797
152 Pt 4.21718 4.05799 3.4432 0.000875529 -0.000105424 0.0566934 0.0153376
153 Pt 7.02864 4.05799 3.4432 6.81154e-08 0.00342262 0.0612066 0.0160961
154 Pt 9.8401 4.05799 3.4432 -0.000875684 -0.000104717 0.0566945 0.0153377
155 Pt 12.6516 4.05799 3.4432 0.000187349 -0.000113661 0.0539509 0.0150796
156 Pt 15.463 4.05799 3.4432 -3.76258e-06 -7.13297e-05 0.0542734 0.0151382
157 Pt 0 6.49278 3.4432 -0.00010023 -6.72781e-05 0.0539548 0.0150901
158 Pt 2.81146 6.49278 3.4432 0.000336009 0.000824538 0.0567414 0.0153438
159 Pt 5.62291 6.49278 3.4432 0.0313762 0.018123 0.116971 0.0222282
160 Pt 8.43437 6.49278 3.4432 -0.0313762 0.0181229 0.116971 0.0222282
161 Pt 11.2458 6.49278 3.4432 -0.000336988 0.000823508 0.056736 0.0153432
162 Pt 14.0573 6.49278 3.4432 0.000102884 -6.00541e-05 0.0539849 0.0150935
163 Pt 1.40573 8.92757 3.4432 2.82938e-05 -0.000125842 0.0541567 0.0151075
164 Pt 4.21718 8.92757 3.4432 0.00293767 -0.00170358 0.0612811 0.0161054
165 Pt 7.02864 8.92757 3.4432 9.26043e-08 -0.0362394 0.116954 0.0222265
166 Pt 9.8401 8.92757 3.4432 -0.00293782 -0.00170282 0.0612823 0.0161055
167 Pt 12.6516 8.92757 3.4432 -2.6179e-05 -0.000128174 0.0541564 0.0151074
168 Pt 15.463 8.92757 3.4432 -3.74385e-06 -1.83264e-06 0.054142 0.0151161
169 Pt 0 11.3624 3.4432 -6.10189e-05 4.09724e-05 0.0542746 0.0151341
170 Pt 2.81146 11.3624 3.4432 0.00010313 3.19327e-05 0.0541297 0.0151036
171 Pt 5.62291 11.3624 3.4432 -0.000556405 -0.000728324 0.0566243 0.0153279
172 Pt 8.43437 11.3624 3.4432 0.000556488 -0.000728434 0.0566247 0.0153279
173 Pt 11.2458 11.3624 3.4432 -0.00010415 3.09178e-05 0.0541243 0.015103
174 Pt 14.0573 11.3624 3.4432 6.36861e-05 4.82575e-05 0.0543049 0.0151375
175 Pt 1.40573 13.7972 3.4432 -7.59678e-05 4.82238e-05 0.0542833 0.0151372
176 Pt 4.21718 13.7972 3.4432 -7.81585e-05 8.20469e-05 0.0537331 0.0150577
177 Pt 7.02864 13.7972 3.4432 6.20065e-08 0.000138564 0.0535241 0.0150177
178 Pt 9.8401 13.7972 3.4432 7.80226e-05 8.27572e-05 0.0537342 0.0150578
179 Pt 12.6516 13.7972 3.4432 7.80971e-05 4.58721e-05 0.054283 0.0151371
180 Pt 15.463 13.7972 3.4432 -3.77185e-06 1.47415e-05 0.0545181 0.0151715
181 Pt 0 0 5.7387 -0.00899436 -0.000610465 18.9608 -0.264341
182 Pt 2.81146 0 5.7387 -0.0193277 -0.000621921 18.8255 -0.263402
183 Pt 5.62291 0 5.7387 -0.0132733 -0.000633826 18.6609 -0.262228
184 Pt 8.43437 0 5.7387 0.0132376 -0.000633933 18.6608 -0.262228
185 Pt 11.2458 0 5.7387 0.0194573 -0.000621746 18.8257 -0.263404
186 Pt 14.0573 0 5.7387 0.00883522 -0.000609793 18.9603 -0.264334
187 Pt 1.40573 2.43479 5.7387 -0.0249152 -0.0177659 18.8371 -0.263465
188 Pt 4.21718 2.43479 5.7387 -0.0493379 -0.071364 18.5436 -0.261162
189 Pt 7.02864 2.43479 5.7387 -1.65704e-06 -0.0588752 18.4152 -0.260241
190 Pt 9.8401 2.43479 5.7387 0.0494441 -0.0713635 18.5436 -0.261162
191 Pt 12.6516 2.43479 5.7387 0.0241149 -0.0177674 18.8366 -0.263459
192 Pt 15.463 2.43479 5.7387 0.000761749 -0.00812734 18.9452 -0.264228
193 Pt 0 4.86959 5.7387 -0.023049 -0.0114346 18.8266 -0.263395
194 Pt 2.81146 4.86959 5.7387 -0.0584437 -0.0325059 18.4705 -0.260655
195 Pt 5.62291 4.86959 5.7387 0.459957 0.815298 19.8825 -0.270968
196 Pt 8.43437 4.86959 5.7387 -0.459994 0.815297 19.8824 -0.270968
197 Pt 11.2458 4.86959 5.7387 0.058571 -0.0325061 18.4706 -0.260657
198 Pt 14.0573 4.86959 5.7387 0.0228907 -0.0114325 18.8261 -0.263388
199 Pt 1.40573 7.30438 5.7387 -0.0889872 -0.000374342 18.5765 -0.261396
200 Pt 4.21718 7.30438 5.7387 0.934021 -0.00736735 19.8935 -0.271043
201 Pt 7.02864 7.30438 5.7387 -2.40119e-06 -4.70668e-07 84.3305 -0.514331
202 Pt 9.8401 7.30438 5.7387 -0.933912 -0.00736702 19.8936 -0.271043
203 Pt 12.6516 7.30438 5.7387 0.0881922 -0.000376182 18.5761 -0.26139
204 Pt 15.463 7.30438 5.7387 0.000757515 4.47633e-05 18.8367 -0.263482
205 Pt 0 9.73917 5.7387 -0.0230395 0.0116086 18.8268 -0.263398
206 Pt 2.81146 9.73917 5.7387 -0.0602622 0.0336294 18.4693 -0.260622
207 Pt 5.62291 9.73917 5.7387 0.472721 -0.807868 19.8826 -0.270969
208 Pt 8.43437 9.73917 5.7387 -0.472757 -0.807867 19.8825 -0.270969
209 Pt 11.2458 9.73917 5.7387 0.0603895 0.0336299 18.4694 -0.260623
210 Pt 14.0573 9.73917 5.7387 0.0228812 0.0116079 18.8262 -0.263391
211 Pt 1.40573 12.174 5.7387 -0.0249732 0.0182517 18.8379 -0.263477
212 Pt 4.21718 12.174 5.7387 -0.0486619 0.0722588 18.5444 -0.261172
213 Pt 7.02864 12.174 5.7387 -1.65522e-06 0.0572887 18.4174 -0.260286
214 Pt 9.8401 12.174 5.7387 0.0487681 0.0722591 18.5444 -0.261173
215 Pt 12.6516 12.174 5.7387 0.0241729 0.0182493 18.8374 -0.263471
216 Pt 15.463 12.174 5.7387 0.000761807 0.00866445 18.946 -0.264239
217 K 7.02864 7.30438 7.3387 8.04304e-06 -3.38961e-05 -24.302 1
218 F 7.02864 7.30438 8.7387 -8.83171e-06 4.64409e-05 -6.45784 -1
