ITEM: TIMESTEP
0
ITEM: NUMBER OF ATOMS
592
ITEM: BOX BOUNDS pp pp pp
0.0000000000000000e+00 1.7606958851500000e+01
0.0000000000000000e+00 1.5248073648800000e+01
0.0000000000000000e+00 3.1980000000000000e+01
ITEM: ATOMS id type element xu yu zu fx fy fz q
1 1 Au 1.641 0.907 -6.109 0.412313 0.587666 -3.37509 -0.113642
2 1 Au 4.468 0.823 -6.152 0.139427 -0.151486 -7.00474 -0.164954
3 1 Au 7.34 0.806 -5.843 -0.0664373 -0.47637 -4.28015 -0.124632
4 1 Au 10.208 0.687 -6.268 -1.33598 -0.505688 -1.63566 -0.0772673
5 1 Au 13.118 0.788 -6.069 1.21406 -0.382106 -1.68838 -0.0716609
6 1 Au 16.208 1.084 -5.878 -0.00527717 0.140205 -1.28277 -0.0685317
7 1 Au -0.104 3.513 -6.014 0.790453 0.0953747 -3.91513 -0.123064
8 1 Au 2.86 3.189 -5.905 -0.0174556 2.12571 -9.27861 -0.187665
9 1 Au 5.817 3.228 -6.048 -0.553235 0.795139 -7.52507 -0.172398
10 1 Au 9.181 3.288 -5.996 -0.756148 0.462634 -1.72984 -0.0846356
11 1 Au 11.978 3.536 -6.038 0.00290814 0.00129422 0.00130108 -0.000927368
12 1 Au 14.755 3.415 -5.902 0.0955328 -0.151469 -0.763398 -0.0523978
13 1 Au 1.439 5.849 -6.026 1.20705 -0.699179 -8.52207 -0.186315
14 1 Au 4.412 5.936 -5.893 -0.0547634 -0.894688 -6.34193 -0.160178
15 1 Au 7.405 5.694 -6.133 -0.155096 -0.52542 -8.36453 -0.186174
16 1 Au 10.179 5.969 -6.03 -0.282245 -0.0115254 -3.61024 -0.114235
17 1 Au 13.149 6.072 -6.388 -0.235076 0.248076 -0.906168 -0.0631273
18 1 Au 16.06 5.877 -5.97 0.525687 0.176832 -1.63032 -0.0786232
19 1 Au 0.161 8.664 -6.014 0.378025 0.380409 -6.61499 -0.162236
20 1 Au 3.057 8.369 -6.088 -0.141737 1.26461 -8.66681 -0.187994
21 1 Au 5.98 8.346 -6.298 -0.673612 -0.434414 -13.3023 -0.233604
22 1 Au 8.798 8.645 -6.073 -0.359458 0.246805 -5.00854 -0.136701
23 1 Au 11.943 8.453 -6.232 -0.0667466 0.710325 -3.47654 -0.118488
24 1 Au 14.916 8.46 -6.088 0.394707 0.800651 -3.58494 -0.118984
25 1 Au 1.532 11.18 -6.015 0.337313 0.521276 -12.7709 -0.227629
26 1 Au 4.592 10.899 -5.867 -0.916373 0.605069 -8.36018 -0.180995
27 1 Au 7.474 11.008 -6.17 -0.360681 0.47627 -10.0165 -0.199787
28 1 Au 10.437 10.942 -6.12 -0.0757542 0.716711 -7.59943 -0.172012
29 1 Au 13.297 10.944 -6.006 0.0159052 1.06105 -8.16075 -0.174446
30 1 Au 16.205 11.161 -5.905 0.355432 -0.0373143 -6.88268 -0.161171
31 1 Au 0.032 13.7 -6.151 0.609304 -2.27112 -5.29496 -0.148119
32 1 Au 2.964 13.66 -5.779 1.16028 -1.3745 -6.41464 -0.151836
33 1 Au 5.824 13.656 -6.035 0.607577 -0.753008 -11.3914 -0.213557
34 1 Au 8.75 13.499 -6.034 -0.75157 -0.126147 -7.64512 -0.174315
35 1 Au 11.697 13.4 -5.926 0.0572625 -0.998694 -5.11568 -0.135734
36 1 Au 14.652 13.48 -5.869 -0.333363 -0.554279 -2.56193 -0.100346
37 1 Au -0.086 1.687 -3.525 -5.12641e-05 0.000314669 -0.00430495 0.00466611
38 1 Au 2.958 1.601 -3.511 0.00012863 0.00249941 -0.0174982 0.00864629
39 1 Au 5.724 1.703 -3.647 -0.000482117 8.63806e-06 -0.0161025 0.00860487
40 1 Au 8.953 1.691 -3.607 -0.00052504 -0.000319775 -0.00348843 0.00432807
41 1 Au 11.778 1.565 -3.565 -0.000324505 -0.00196552 -0.00673803 0.00503321
42 1 Au 14.51 1.687 -3.602 0.000238103 0.000168126 -0.000820134 0.00237113
43 1 Au 1.57 4.259 -3.476 -0.000390255 -0.000720132 -0.00407487 0.00481916
44 1 Au 4.412 4.29 -3.506 0.000368371 -0.000615368 -0.00189007 0.00390804
45 1 Au 7.36 4.27 -3.592 -0.00101162 0.00117399 -0.002116 0.00368654
46 1 Au 10.313 4.279 -3.664 -0.000942588 0.000403473 -0.0033372 0.00394238
47 1 Au 13.264 4.282 -3.518 0.00044802 6.60904e-05 -0.000675845 0.00185186
48 1 Au 16.08 4.23 -3.634 0.00130104 -0.000246785 -0.0072786 0.0057928
49 1 Au -0.056 6.853 -3.554 0.00128161 -0.000107128 -0.00307724 0.00429318
50 1 Au 2.871 6.754 -3.614 0.0014721 0.00202967 -0.00928681 0.00674706
51 1 Au 5.962 6.939 -3.712 -0.00230204 0.00144939 -0.0092662 0.00699532
52 1 Au 8.849 6.888 -3.673 0.00037465 -0.000142324 -0.00574934 0.00551621
53 1 Au 11.841 6.813 -3.679 -0.000847667 0.000616912 -0.00360613 0.00413694
54 1 Au 14.696 6.857 -3.626 0.000669606 0.000550064 -0.00487677 0.00457498
55 1 Au 1.422 9.315 -3.703 -0.00292582 0.000197792 -0.00699507 0.00635117
56 1 Au 4.277 9.337 -3.442 0.0013184 0.000357128 -0.00818006 0.00610409
57 1 Au 7.213 9.394 -3.692 0.000669595 0.00119011 -0.0140363 0.00811974
58 1 Au 10.284 9.388 -3.477 -0.00107996 0.00150395 -0.00748238 0.00573832
59 1 Au 13.12 9.284 -3.587 -0.000148876 0.0022186 -0.00797488 0.00598297
60 1 Au 16.091 9.286 -3.533 0.000676516 0.000982865 -0.00571393 0.00542702
61 1 Au 0.019 11.884 -3.568 3.98043e-05 -0.00251595 -0.00729894 0.00639201
62 1 Au 3.08 11.788 -3.692 -0.00183878 0.000341247 -0.00183538 0.00491231
63 1 Au 6.021 11.892 -3.644 -0.000714846 -0.00153289 -0.00722745 0.00640796
64 1 Au 8.948 11.813 -3.606 -0.000541158 -0.000362966 -0.00991654 0.00695505
65 1 Au 11.818 11.813 -3.488 -0.000358861 -0.000470175 -0.00874193 0.00630476
66 1 Au 14.595 11.804 -3.629 0.000939301 -0.00195639 -0.00929616 0.0068911
67 1 Au 1.412 14.474 -3.43 0.00288294 -0.000623793 -0.0113115 0.00700315
68 1 Au 4.502 14.383 -3.408 -0.000738302 0.000384025 -0.0127496 0.00744195
69 1 Au 7.328 14.397 -3.518 -0.00125971 0.000585497 -0.00862474 0.00652128
70 1 Au 10.357 14.35 -3.626 0.00155361 -0.00197717 -0.00894586 0.0065429
71 1 Au 13.137 14.408 -3.685 -0.0021336 -0.00077633 -0.00491253 0.00515484
72 1 Au 16.218 14.516 -3.694 0.00111409 -0.00100072 -0.00571153 0.00529177
73 1 Au 0 0 -1.198 9.16905e-05 -4.40885e-05 0.00574641 -0.00498909
74 1 Au 2.934 0 -1.198 6.69519e-06 0.000146137 0.00581335 -0.00497377
75 1 Au 5.869 0 -1.198 -0.000122355 -4.47382e-05 0.00577998 -0.00496586
76 1 Au 8.803 0 -1.198 3.85293e-05 -4.3857e-05 0.00575297 -0.00485967
77 1 Au 11.738 0 -1.198 -2.99634e-05 6.67525e-05 0.00576845 -0.00491888
78 1 Au 14.672 0 -1.198 -1.03385e-05 -1.13647e-05 0.00572329 -0.00484702
79 1 Au 1.467 2.541 -1.198 5.82642e-05 -8.66854e-05 0.00579437 -0.00482786
80 1 Au 4.402 2.541 -1.198 -3.63816e-06 -0.00017806 0.00578553 -0.00489259
81 1 Au 7.336 2.541 -1.198 -2.07854e-05 3.80702e-06 0.00577262 -0.00478834
82 1 Au 10.271 2.541 -1.198 5.77396e-05 -3.72357e-05 0.00576665 -0.00491966
83 1 Au 13.205 2.541 -1.198 -9.66713e-05 -4.22189e-05 0.00572795 -0.00489338
84 1 Au 16.14 2.541 -1.198 2.97137e-05 1.72302e-05 0.00575547 -0.0048084
85 1 Au 0 5.083 -1.198 -2.33186e-05 4.64974e-06 0.00578913 -0.00477856
86 1 Au 2.934 5.083 -1.198 -6.20199e-05 4.48346e-05 0.00573255 -0.0048668
87 1 Au 5.869 5.083 -1.198 9.89778e-06 1.09552e-05 0.00574282 -0.00472145
88 1 Au 8.803 5.083 -1.198 9.02093e-06 -1.85098e-05 0.00574351 -0.00478216
89 1 Au 11.738 5.083 -1.198 1.48109e-05 -2.84712e-05 0.00572865 -0.00486657
90 1 Au 14.672 5.083 -1.198 3.55123e-05 2.07193e-05 0.00575038 -0.00487323
91 1 Au 1.467 7.624 -1.198 5.4251e-05 -7.27423e-06 0.00576144 -0.00483232
92 1 Au 4.402 7.624 -1.198 -2.43173e-05 0.000100549 0.00581051 -0.00482234
93 1 Au 7.336 7.624 -1.198 -3.36196e-05 4.15101e-05 0.00573007 -0.0048944
94 1 Au 10.271 7.624 -1.198 4.90946e-06 8.1754e-05 0.00575417 -0.00486573
95 1 Au 13.205 7.624 -1.198 8.40052e-06 3.63612e-05 0.00573252 -0.00495749
96 1 Au 16.14 7.624 -1.198 -3.84133e-05 1.6199e-05 0.00574684 -0.00490834
97 1 Au 0 10.165 -1.198 -2.11151e-05 -2.31983e-05 0.00578406 -0.00473283
98 1 Au 2.934 10.165 -1.198 0.00010032 -0.000142818 0.00572728 -0.00484124
99 1 Au 5.869 10.165 -1.198 3.72995e-05 -6.7035e-05 0.00579917 -0.0048593
100 1 Au 8.803 10.165 -1.198 4.1352e-05 1.97636e-05 0.00579647 -0.00489365
101 1 Au 11.738 10.165 -1.198 -2.52333e-05 -1.00618e-05 0.00576896 -0.00496799
102 1 Au 14.672 10.165 -1.198 -3.42694e-05 -3.90582e-05 0.00577459 -0.00485443
103 1 Au 1.467 12.707 -1.198 -0.000162492 0.000122215 0.00579051 -0.00472703
104 1 Au 4.402 12.707 -1.198 0.000116788 0.000122747 0.0057483 -0.00481329
105 1 Au 7.336 12.707 -1.198 -1.80692e-05 2.76242e-05 0.00577359 -0.00490636
106 1 Au 10.271 12.707 -1.198 -5.2072e-06 -4.19598e-05 0.0057778 -0.0049165
107 1 Au 13.205 12.707 -1.198 -2.39485e-05 -7.27086e-05 0.00574171 -0.00490581
108 1 Au 16.14 12.707 -1.198 3.3196e-05 1.8752e-05 0.00577831 -0.0048028
109 1 Au 1.467 0.847 1.198 4.24176e-05 9.45577e-05 -0.00568293 0.00455694
110 1 Au 4.402 0.847 1.198 -2.16854e-05 -0.000131467 -0.00569142 0.00462781
111 1 Au 7.336 0.847 1.198 4.94066e-06 -0.000172589 -0.00566583 0.00466384
112 1 Au 10.271 0.847 1.198 -8.79752e-05 -0.000112975 -0.00563427 0.00466913
113 1 Au 13.205 0.847 1.198 0.000123022 5.56076e-05 -0.00569665 0.00456002
114 1 Au 16.14 0.847 1.198 -6.89397e-05 3.9602e-05 -0.00569593 0.00457658
115 1 Au 0 3.388 1.198 5.20336e-05 2.13805e-06 -0.00565942 0.00462069
116 1 Au 2.934 3.388 1.198 -5.1226e-05 -9.56475e-05 -0.00566797 0.00459828
117 1 Au 5.869 3.388 1.198 3.11435e-05 4.67785e-05 -0.00566393 0.00446307
118 1 Au 8.803 3.388 1.198 2.91384e-05 7.25397e-05 -0.00565209 0.00458934
119 1 Au 11.738 3.388 1.198 3.42393e-05 2.44364e-05 -0.00564921 0.00468474
120 1 Au 14.672 3.388 1.198 -0.000133358 -6.72346e-05 -0.00571289 0.00461419
121 1 Au 1.467 5.93 1.198 -7.84655e-05 0.000143662 -0.00565763 0.00476321
122 1 Au 4.402 5.93 1.198 3.46829e-05 2.41417e-05 -0.00567232 0.00452135
123 1 Au 7.336 5.93 1.198 -3.60896e-05 -2.95861e-05 -0.00569726 0.00446989
124 1 Au 10.271 5.93 1.198 1.70157e-05 -1.36617e-05 -0.0056768 0.00451687
125 1 Au 13.205 5.93 1.198 1.01947e-05 -1.17143e-05 -0.00568953 0.0045698
126 1 Au 16.14 5.93 1.198 8.6852e-05 6.83456e-06 -0.00567167 0.00464254
127 1 Au 0 8.471 1.198 9.65383e-05 -7.58124e-05 -0.00568878 0.00476725
128 1 Au 2.934 8.471 1.198 -0.000141459 -2.71608e-06 -0.00565899 0.0047028
129 1 Au 5.869 8.471 1.198 2.25359e-05 -4.27773e-05 -0.00565391 0.00451741
130 1 Au 8.803 8.471 1.198 6.3278e-05 1.13348e-05 -0.00566227 0.00454458
131 1 Au 11.738 8.471 1.198 1.4879e-05 5.91682e-05 -0.00569138 0.00461433
132 1 Au 14.672 8.471 1.198 -1.25696e-05 1.43206e-06 -0.00566782 0.00463271
133 1 Au 1.467 11.012 1.198 3.87707e-05 -5.47474e-05 -0.00571643 0.00459602
134 1 Au 4.402 11.012 1.198 -8.02359e-05 8.59042e-05 -0.00564992 0.00474735
135 1 Au 7.336 11.012 1.198 -3.14049e-05 2.24265e-05 -0.00564453 0.00453815
136 1 Au 10.271 11.012 1.198 9.59867e-05 -4.5719e-05 -0.0056423 0.00465141
137 1 Au 13.205 11.012 1.198 3.93865e-05 -1.51356e-05 -0.00570534 0.00460972
138 1 Au 16.14 11.012 1.198 -2.76552e-05 1.00828e-05 -0.00568017 0.00459753
139 1 Au 0 13.554 1.198 -9.82142e-06 -1.1638e-05 -0.00564469 0.00451114
140 1 Au 2.934 13.554 1.198 0.00017171 -1.63065e-05 -0.0056971 0.00471782
141 1 Au 5.869 13.554 1.198 -7.68741e-05 8.22401e-05 -0.00572562 0.00472597
142 1 Au 8.803 13.554 1.198 -2.96798e-06 0.000170407 -0.0056997 0.00467358
143 1 Au 11.738 13.554 1.198 -2.6952e-05 5.95952e-06 -0.00569331 0.00462848
144 1 Au 14.672 13.554 1.198 -2.2662e-05 -2.1606e-05 -0.00568856 0.00460391
145 1 Au 0.037 1.727 3.523 0.000135457 0.00199223 0.00499287 0.00451882
146 1 Au 3.046 1.6 3.614 -0.000183963 0.00235966 0.00337612 0.00412881
147 1 Au 5.838 1.796 3.513 0.000178281 -0.00091266 0.012385 0.00680205
148 1 Au 8.816 1.754 3.388 0.001979 -0.00106728 0.011504 0.00682537
149 1 Au 11.773 1.634 3.404 -0.000313762 0.00170802 0.0129469 0.00712064
150 1 Au 14.67 1.783 3.607 -0.000974537 0.000404927 0.00157909 0.00323801
151 1 Au 1.552 4.216 3.572 0.000956119 -0.000617374 0.00959829 0.00640139
152 1 Au 4.35 4.176 3.609 8.19925e-05 -0.00010859 0.0117963 0.00673844
153 1 Au 7.268 4.275 3.509 0.00109456 -0.000370193 0.00384507 0.00393669
154 1 Au 10.295 4.282 3.7 0.00092897 -0.00256951 0.0121598 0.00774699
155 1 Au 13.137 4.338 3.688 -0.00179464 -0.00171357 0.00663871 0.00605849
156 1 Au 16.03 4.042 3.476 0.000642962 0.00102343 0.00912419 0.00591533
157 1 Au -0.089 6.804 3.63 0.00124647 0.000401126 0.0028827 0.00455756
158 1 Au 3.074 6.76 3.403 -0.0019164 0.000881019 0.0054077 0.00488714
159 1 Au 5.952 6.798 3.649 -0.00157755 0.00209565 0.00559195 0.00493901
160 1 Au 8.764 6.692 3.525 0.00168121 0.0014733 0.0120386 0.00672417
161 1 Au 11.735 6.794 3.633 0.000935839 -5.04158e-05 0.0148366 0.00789526
162 1 Au 14.708 6.729 3.541 -0.000428815 -5.42029e-05 0.0100668 0.00659531
163 1 Au 1.592 9.359 3.52 0.00068372 -0.00129323 0.0034089 0.00437054
164 1 Au 4.55 9.229 3.598 -0.000374984 0.00141657 0.0136762 0.00759291
165 1 Au 7.445 9.349 3.665 9.20846e-05 -2.06737e-05 0.0167028 0.00829559
166 1 Au 10.271 9.322 3.668 -6.29971e-05 0.00221002 0.00638548 0.00579684
167 1 Au 13.227 9.311 3.55 -0.000288857 -0.00120698 0.0057068 0.00513353
168 1 Au 16.136 9.432 3.544 0.000349943 -0.000518073 0.0066106 0.00530675
169 1 Au 0.07 11.971 3.572 0.000231607 0.00034304 0.0064651 0.00495952
170 1 Au 2.874 11.904 3.64 0.00330938 0.00012315 0.00441319 0.00491356
171 1 Au 5.883 11.81 3.485 -0.00105791 -0.00129275 0.0059393 0.00513188
172 1 Au 8.93 11.891 3.513 0.000671024 -0.000908561 0.0134675 0.00723879
173 1 Au 11.957 11.875 3.45 -0.00118426 -6.6928e-05 0.00547022 0.0047993
174 1 Au 14.758 12.051 3.668 -0.000233766 -5.56826e-05 0.00389599 0.00434741
175 1 Au 1.531 14.473 3.511 0.00048021 -0.000767486 0.00653652 0.00477389
176 1 Au 4.554 14.332 3.623 -0.00011894 -0.000168825 -0.000210847 0.0010321
177 1 Au 7.437 14.428 3.639 0.000925769 0.00130868 0.001561 0.00348539
178 1 Au 10.403 14.336 3.532 -0.000804266 0.00091293 0.00177441 0.00339855
179 1 Au 13.366 14.573 3.573 0.000896936 -0.000932461 0.00599133 0.0049161
180 1 Au 16.26 14.454 3.502 2.19649e-05 -0.000183748 0.00516454 0.0043041
181 1 Au -0.126 -0.203 6.032 0.0340152 0.458195 1.68576 -0.0812409
182 1 Au 2.739 -0.388 5.93 0.789149 0.076801 3.02886 -0.11499
183 1 Au 5.936 0.133 5.91 -0.344707 -1.02471 4.47016 -0.134364
184 1 Au 8.986 0.108 5.886 0.396936 -0.827361 5.85329 -0.14916
185 1 Au 11.675 0.317 6.168 -0.898831 -0.516719 6.45996 -0.167057
186 1 Au 14.643 -0.076 6.097 -0.67761 0.606756 4.4284 -0.134598
187 1 Au 1.633 2.358 5.927 0.735149 -0.545915 4.88834 -0.136185
188 1 Au 4.39 2.299 5.96 -0.454896 -0.23525 5.02975 -0.137138
189 1 Au 7.264 2.379 6.027 0.177409 0.195682 3.11678 -0.111108
190 1 Au 10.161 2.627 5.832 -0.00843068 0.121249 5.42616 -0.136755
191 1 Au 13.161 2.599 5.815 0.949493 0.317727 6.46519 -0.153995
192 1 Au 16.287 2.556 6.147 -1.05383 -0.130087 9.36187 -0.193725
193 1 Au -0.036 4.991 6.061 0.0755044 0.170505 3.41446 -0.120393
194 1 Au 2.777 4.869 6.086 -0.0525981 0.403778 5.56603 -0.148035
195 1 Au 5.441 4.867 6.165 0.108847 0.324868 5.8593 -0.153226
196 1 Au 8.597 4.932 5.96 0.298588 -0.0394533 4.59654 -0.133177
197 1 Au 11.703 5.053 6.122 0.10922 -0.0220641 9.82679 -0.198341
198 1 Au 14.843 5.124 5.984 -0.893457 -0.0602157 8.37266 -0.18017
199 1 Au 1.606 7.477 5.716 -0.0667337 0.444911 6.15281 -0.149916
200 1 Au 4.642 7.524 6.12 -0.601976 -0.0302887 7.73476 -0.175719
201 1 Au 7.556 7.704 6.157 0.0972707 0.080043 8.08458 -0.176471
202 1 Au 10.166 7.319 6.048 0.387008 0.79248 8.0443 -0.176796
203 1 Au 13.116 7.552 5.961 -0.219118 0.326979 10.2441 -0.195026
204 1 Au 16.04 7.745 5.955 0.0813995 -0.314593 5.61769 -0.149551
205 1 Au 0.087 10.033 5.932 0.855746 -0.649051 4.75479 -0.137977
206 1 Au 3.1 9.938 5.935 -0.796053 -0.125505 6.36492 -0.158816
207 1 Au 5.944 10.058 6.085 -0.134368 0.203037 6.28626 -0.154899
208 1 Au 8.819 10.101 6.22 0.70863 -1.23498 9.24865 -0.191822
209 1 Au 11.637 10.072 6.018 -0.150595 -0.616517 6.55101 -0.161471
210 1 Au 14.555 10.301 5.961 -0.400141 0.0358336 3.8093 -0.123751
211 1 Au 1.324 12.535 6.132 0.957428 -1.17468 4.4125 -0.134199
212 1 Au 4.389 12.493 5.893 0.274529 0.84694 7.51267 -0.170405
213 1 Au 7.463 12.647 5.929 -0.33088 0.662379 5.51439 -0.148559
214 1 Au 10.27 12.566 6.032 -0.100491 1.37872 7.65509 -0.173261
215 1 Au 13.137 12.928 5.865 -0.0976304 -0.17721 3.77262 -0.120045
216 1 Au 16.084 12.586 6.06 -0.248369 -0.229309 1.51767 -0.0785725
217 5 Cs 7.177 13.838 11.531 4.74383 18.2773 0.542766 1
218 5 Cs 7.318 8.401 10.355 12.8262 13.9719 -25.8642 1
219 5 Cs 4.169 13.593 8.996 -36.144 20.6569 -25.9921 1
220 5 Cs 13.977 2.3 8.862 -7.87916 -25.9738 -13.2714 1
221 5 Cs 10.212 14.085 8.93 21.3267 3.96189 -27.6055 1
222 5 Cs 14.752 6.248 9.346 5.9145 5.75663 -15.8183 1
223 5 Cs 1.426 7.763 9.138 -7.48888 -1.73444 -33.0604 1
224 5 Cs 4.913 5.524 10.348 -17.6521 -40.2601 -22.5354 1
225 4 Cl 1.526 14.645 11.058 34.4798 -4.13925 32.6255 -1
226 4 Cl 9.931 15.948 11.592 9.28542 -6.90529 1.94912 -1
227 4 Cl 15.669 15.319 10.648 -31.06 8.64333 18.3261 -1
228 5 Cs 13.321 16.287 -10.65 0.957628 9.86221 14.1074 1
229 5 Cs 15.807 11.202 -9.55 -15.7751 19.8604 17.5251 1
230 5 Cs 2.619 10.134 -9.426 -17.7323 -2.58576 38.2076 1
231 5 Cs 2.957 5.742 -11.609 -4.92866 -14.12 8.78961 1
232 5 Cs 5.422 8.326 -10.607 -0.320301 -17.8279 5.33042 1
233 5 Cs 4.21 0.563 -10.47 8.00535 6.97014 17.2425 1
234 5 Cs 8.623 10.545 -10.143 9.15518 6.65766 26.6329 1
235 5 Cs 11.259 13.486 -9.512 13.4703 16.0114 24.4744 1
236 4 Cl 14.787 13.688 -11.524 -9.56864 -16.5092 -11.0091 -1
237 4 Cl 12.988 3.671 -12.856 13.4586 -13.4509 -6.75219 -1
238 4 Cl 11.388 3.533 -8.84 -6.50447 -0.98919 -25.2296 -1
239 2 O 12.8541 7.14149 11.1483 -83.8502 71.0077 67.1315 -0.8476
240 3 H 11.8563 7.09387 11.1943 87.2834 -4.13765 -9.53492 0.4238
241 3 H 13.0708 7.79797 11.8709 -6.63678 -65.1111 -67.344 0.4238
242 2 O 7.84223 8.69228 13.6459 -72.106 -79.8453 42.1673 -0.8476
243 3 H 6.90535 8.91097 13.9187 90.5023 -8.23186 -34.7443 0.4238
244 3 H 8.05984 7.71888 13.7176 -7.68733 89.0694 -9.16199 0.4238
245 2 O 12.1526 12.9056 15.8733 124.913 -15.6531 14.724 -0.8476
246 3 H 12.6378 12.263 16.4663 -47.3935 52.8613 -55.4323 0.4238
247 3 H 12.9022 13.2633 15.3163 -70.7099 -28.3764 47.0139 0.4238
248 2 O 13.201 14.5724 8.88848 79.4716 -73.7514 4.64015 -0.8476
249 3 H 13.695 14.2655 8.07495 -44.6885 31.5423 61.4915 0.4238
250 3 H 13.6933 14.0807 9.60676 -35.7471 45.4151 -64.202 0.4238
251 2 O 11.0524 2.40609 9.01099 -128.145 -6.38786 20.5678 -0.8476
252 3 H 10.5155 2.23329 9.83676 64.8109 8.69193 -70.8668 0.4238
253 3 H 10.4294 2.45928 8.23058 74.9014 -4.8311 49.6427 0.4238
254 2 O 16.887 14.9833 15.3885 48.8477 87.7993 -85.1854 -0.8476
255 3 H 17.2833 14.6503 14.5329 -41.2419 9.48403 67.5954 0.4238
256 3 H 16.8273 15.9799 15.3322 -5.79747 -107.486 4.44832 0.4238
257 2 O 3.01453 13.9313 14.6331 64.1237 55.3145 120.13 -0.8476
258 3 H 3.4648 13.5043 15.4173 -56.8211 23.1125 -70.6401 0.4238
259 3 H 2.86958 14.8684 14.9504 -5.3368 -82.7539 -40.0744 0.4238
260 2 O -0.218541 13.4844 13.2186 -35.9766 -33.0821 -98.4437 -0.8476
261 3 H 0.288717 13.7823 12.41 -31.774 -8.2706 58.9813 0.4238
262 3 H -0.992001 12.9721 12.8453 71.4911 56.7182 31.0443 0.4238
263 2 O 12.0564 1.09008 14.5843 -35.4669 108.216 59.6046 -0.8476
264 3 H 11.2149 1.6256 14.5136 80.8438 -60.7571 -6.22989 0.4238
265 3 H 12.7484 1.63107 15.0623 -30.7609 -47.7586 -43.6317 0.4238
266 2 O 2.74281 0.819592 8.418 -82.8758 76.5766 -27.697 -0.8476
267 3 H 2.65578 1.42518 7.62699 14.6299 -62.0104 55.1839 0.4238
268 3 H 1.79908 0.911689 8.73564 76.0169 -18.6705 -21.6035 0.4238
269 2 O 3.78955 4.18286 12.5376 31.8977 -34.821 117.336 -0.8476
270 3 H 3.26578 3.39718 12.8668 31.284 58.8495 -44.4915 0.4238
271 3 H 4.3905 4.37416 13.3136 -59.7756 -20.5527 -80.9058 0.4238
272 2 O 5.99628 12.8896 14.2037 -59.5614 91.5974 52.4658 -0.8476
273 3 H 5.09927 13.2346 13.9274 73.4738 -36.0317 19.2019 0.4238
274 3 H 6.31134 13.4121 14.9959 -19.7345 -51.2395 -82.4248 0.4238
275 2 O 10.0912 7.54103 11.4203 21.2635 108.189 -13.9025 -0.8476
276 3 H 10.1555 7.98636 10.5273 -7.33429 -46.0523 57.0059 0.4238
277 3 H 10.2246 8.24733 12.1155 -2.41783 -55.8772 -43.0999 0.4238
278 2 O 2.99184 10.1361 10.7659 -7.22861 96.1049 30.3053 -0.8476
279 3 H 3.11675 10.5833 11.6515 -22.9459 -47.6342 -85.8021 0.4238
280 3 H 2.63863 10.7515 10.0613 13.1846 -42.9984 40.8616 0.4238
281 2 O 2.40941 1.66289 12.9507 -29.3051 -79.5484 39.1235 -0.8476
282 3 H 2.2406 1.44534 13.9121 4.85968 26.322 -65.5832 0.4238
283 3 H 2.20496 0.820588 12.452 3.69228 66.8908 22.7235 0.4238
284 2 O 1.25216 7.60366 16.0742 19.9782 93.3779 -79.9485 -0.8476
285 3 H 1.88251 7.54386 15.3002 -62.4359 -13.901 74.5816 0.4238
286 3 H 0.665911 8.40761 15.9743 41.8442 -78.3248 14.6668 0.4238
287 2 O 10.9964 11.2121 9.50715 66.6418 -80.3993 7.40058 -0.8476
288 3 H 11.8094 11.0592 10.069 -70.7661 27.5993 -54.6773 0.4238
289 3 H 11.1584 10.612 8.72387 -15.2414 62.9129 50.4093 0.4238
290 2 O 15.8477 3.0237 13.4609 -134.394 5.15742 10.101 -0.8476
291 3 H 15.2473 3.81609 13.5685 65.0861 -48.662 -15.3571 0.4238
292 3 H 15.2481 2.24373 13.2816 64.1233 49.482 11.4703 0.4238
293 2 O 6.8971 0.91786 14.9486 -16.4075 -62.9137 -102.328 -0.8476
294 3 H 6.12433 1.03159 14.3242 76.6327 0.922436 65.3723 0.4238
295 3 H 7.62789 0.327772 14.6055 -55.4281 57.3207 34.8952 0.4238
296 2 O 14.6486 11.9732 8.97101 -73.4743 -126.258 -33.7899 -0.8476
297 3 H 14.2324 11.7774 8.08306 48.3358 31.602 68.6674 0.4238
298 3 H 14.5299 11.0893 9.42356 24.5105 95.1663 -43.0259 0.4238
299 2 O 0.984161 4.27705 13.8885 -64.204 71.6138 -57.6629 -0.8476
300 3 H 0.351055 5.03113 14.0633 47.7835 -75.8182 -7.45601 0.4238
301 3 H 0.798393 4.06214 12.9297 17.133 -5.56828 72.678 0.4238
302 2 O 4.33655 14.2754 11.7257 -36.275 76.7245 83.0414 -0.8476
303 3 H 4.53778 15.0556 12.3181 -19.4526 -65.9257 -63.3143 0.4238
304 3 H 3.35759 14.3735 11.9047 53.6812 -17.4849 -36.0922 0.4238
305 2 O 8.61753 11.5304 10.2871 78.8937 -18.204 105.287 -0.8476
306 3 H 8.62132 11.4819 11.2859 -0.374418 2.71354 -103.941 0.4238
307 3 H 9.54862 11.3414 9.97506 -59.9073 16.3229 0.348108 0.4238
308 2 O 16.904 5.69677 15.4786 110.944 15.4885 79.0877 -0.8476
309 3 H 17.4081 6.4854 15.8306 -49.9456 -68.8439 -33.212 0.4238
310 3 H 17.5217 5.02127 15.8813 -54.7457 48.589 -34.4191 0.4238
311 2 O 15.0655 9.09152 10.6405 -15.2591 66.2461 121.508 -0.8476
312 3 H 14.254 9.59184 10.9425 77.0732 -45.5464 -44.6612 0.4238
313 3 H 15.7638 9.33592 11.3133 -60.6049 -23.1412 -76.6714 0.4238
314 2 O 10.4465 5.60932 9.13468 32.9867 37.0621 -58.8631 -0.8476
315 3 H 10.8673 5.06533 8.40873 -38.4802 40.7647 51.969 0.4238
316 3 H 10.4134 6.55372 8.80755 -5.55383 -75.892 17.196 0.4238
317 2 O 14.6041 0.632834 13.3938 -71.8426 -10.6767 -89.5749 -0.8476
318 3 H 13.6061 0.673291 13.3465 94.8024 2.78498 10.993 0.4238
319 3 H 15.016 0.354344 12.5262 -16.2113 23.1562 63.8726 0.4238
320 2 O 14.908 12.5673 11.7553 -30.5748 96.2261 70.362 -0.8476
321 3 H 14.3107 12.7952 12.5244 54.2793 -23.8243 -88.0218 0.4238
322 3 H 15.1903 13.4246 11.3248 -14.7387 -66.6182 14.2318 0.4238
323 2 O 14.6272 5.19407 13.4632 -132.661 -39.3536 -45.4461 -0.8476
324 3 H 14.2203 5.22063 12.5501 46.8771 -5.9449 75.053 0.4238
325 3 H 13.7873 4.94736 13.9466 74.5411 19.8274 -31.057 0.4238
326 2 O 17.7237 1.87158 8.9959 -90.7167 -53.7534 -24.1267 -0.8476
327 3 H 17.1643 1.92886 8.16895 62.6186 -7.23427 62.7717 0.4238
328 3 H 17.3512 1.08312 9.48544 32.2375 54.1361 -30.78 0.4238
329 2 O 10.5164 9.05479 13.4079 -83.9311 -86.2033 24.4714 -0.8476
330 3 H 10.9007 8.23056 13.8237 -15.4038 64.4069 -23.0168 0.4238
331 3 H 9.52917 9.18181 13.5041 88.4372 -5.43976 -5.63373 0.4238
332 2 O 12.3063 13.5466 11.9352 -87.6688 88.144 113.823 -0.8476
333 3 H 12.2389 13.6293 12.9295 17.9089 -17.7315 -95.7954 0.4238
334 3 H 11.6458 14.2923 11.848 60.5098 -64.7281 -12.9376 0.4238
335 2 O 11.5134 6.90253 14.6616 60.8826 -62.2289 65.5562 -0.8476
336 3 H 11.9504 7.06752 15.5458 -27.9622 -1.57364 -66.2737 0.4238
337 3 H 11.8177 5.95679 14.5477 -27.0826 67.8868 -0.746412 0.4238
338 2 O 12.1125 4.35946 14.4832 -79.0899 -58.5788 51.7808 -0.8476
339 3 H 11.5019 3.73312 13.9985 62.7917 62.2377 31.4633 0.4238
340 3 H 11.9842 4.18952 15.4603 23.2532 17.8811 -82.8012 0.4238
341 2 O 5.74883 10.7171 11.7211 -61.7661 92.6665 -49.5658 -0.8476
342 3 H 5.20751 11.3939 12.22 50.6441 -67.4062 -36.5974 0.4238
343 3 H 5.60635 10.9479 10.7586 12.8213 -30.336 83.8878 0.4238
344 2 O 1.69671 10.0255 13.7509 25.8434 -44.7575 138.977 -0.8476
345 3 H 1.40295 10.6202 14.4993 20.5654 -38.954 -87.5814 0.4238
346 3 H 2.1237 9.19712 14.1134 -44.7006 87.3281 -54.9955 0.4238
347 2 O 1.83287 11.6095 9.07948 -67.0324 -18.7596 -30.6831 -0.8476
348 3 H 1.72684 11.233 8.15915 10.4824 41.79 68.7944 0.4238
349 3 H 1.00603 12.0714 9.40038 73.664 -28.2459 -30.3063 0.4238
350 2 O 12.7802 1.50008 11.5608 -40.3092 -93.0015 -24.5736 -0.8476
351 3 H 11.8573 1.14032 11.6979 66.1766 39.3993 -13.999 0.4238
352 3 H 13.3082 0.753469 11.1561 -31.3972 67.2904 31.7845 0.4238
353 2 O 8.92519 14.4099 14.1477 62.1188 64.4438 50.167 -0.8476
354 3 H 9.043 14.4119 15.1408 -12.7601 -16.2189 -61.8015 0.4238
355 3 H 9.59598 14.9947 13.6917 -61.9185 -50.9854 24.9908 0.4238
356 2 O 17.2686 5.22448 8.69124 29.4189 -108.864 69.6751 -0.8476
357 3 H 18.1753 4.92554 8.9885 -62.8427 27.5639 -37.1551 0.4238
358 3 H 16.8288 4.32641 8.70061 44.2995 83.2321 -19.6492 0.4238
359 2 O 8.87436 10.8817 15.4391 -49.3157 -52.9821 -98.7172 -0.8476
360 3 H 8.34539 10.042 15.3157 58.3285 82.9214 14.9437 0.4238
361 3 H 9.13909 11.2838 14.5626 -13.6565 -27.1848 89.409 0.4238
362 2 O 13.222 4.05723 11.1371 -109.919 -32.8267 30.5487 -0.8476
363 3 H 12.9798 3.12418 11.4031 29.9855 57.7006 -21.047 0.4238
364 3 H 12.3243 4.49011 11.2187 76.919 -37.1613 -7.95996 0.4238
365 2 O 13.4814 10.0292 15.9337 28.0648 -103.646 -27.4008 -0.8476
366 3 H 13.9854 9.9243 15.0764 -37.8627 25.4079 75.9867 0.4238
367 3 H 13.26 9.12732 16.3046 16.3167 73.9673 -33.1101 0.4238
368 2 O 12.8182 8.7952 8.79773 -31.2218 -130.541 21.7597 -0.8476
369 3 H 12.7494 8.1577 9.5651 16.8871 66.9508 -69.3093 0.4238
370 3 H 12.8487 8.31221 7.92263 3.24407 59.568 53.2487 0.4238
371 2 O 10.6121 4.88196 11.5923 -12.3161 129.314 -42.7478 -0.8476
372 3 H 10.6287 5.23094 10.6554 -4.13386 -40.024 49.4837 0.4238
373 3 H 10.5484 5.79465 11.996 4.76314 -82.1793 -29.0785 0.4238
374 2 O 8.61035 3.26646 12.1612 88.755 29.5427 -76.5893 -0.8476
375 3 H 9.11123 2.57256 11.6439 -43.7141 36.0716 53.1183 0.4238
376 3 H 9.18552 4.07442 12.0332 -39.0036 -74.754 15.4194 0.4238
377 2 O 6.32925 2.2664 11.4066 36.4267 79.8252 -63.3676 -0.8476
378 3 H 7.18923 2.75657 11.5487 -63.8296 -52.6674 -0.240887 0.4238
379 3 H 5.87775 2.50601 10.5471 30.548 -34.7546 67.8037 0.4238
380 2 O 1.64475 4.55779 16.4315 20.1267 -110.034 -23.4218 -0.8476
381 3 H 1.42221 3.82149 17.0705 12.9653 66.1858 -42.1432 0.4238
382 3 H 1.86283 4.13302 15.5528 -30.1559 44.9269 60.5582 0.4238
383 2 O 7.79832 4.8682 9.56259 101.18 45.4035 90.1687 -0.8476
384 3 H 8.6976 4.94614 9.13223 -75.7145 -8.38799 13.1708 0.4238
385 3 H 8.01824 5.16759 10.491 -21.0044 -41.0424 -95.5798 0.4238
386 2 O 2.01766 1.47552 15.398 -5.02946 75.9527 76.4498 -0.8476
387 3 H 1.14113 1.8528 15.6969 76.6488 -42.0384 -38.7152 0.4238
388 3 H 2.73897 1.84584 15.9833 -49.5366 -37.7853 -51.7111 0.4238
389 2 O 7.74614 2.17125 9.11454 84.0036 108.463 22.0715 -0.8476
390 3 H 8.72576 2.23041 8.92254 -106.578 -17.1328 6.36706 0.4238
391 3 H 7.45071 3.1098 9.29296 19.3647 -84.7135 -28.9978 0.4238
392 2 O 4.61412 2.63189 9.27292 -9.34173 -76.7498 -29.222 -0.8476
393 3 H 5.00364 2.45991 8.3681 -33.8691 18.2195 69.6728 0.4238
394 3 H 4.00351 1.908 9.59408 46.3179 63.8307 -38.2668 0.4238
395 2 O 10.0193 8.30747 8.83248 45.2648 52.9447 -23.7943 -0.8476
396 3 H 10.9706 8.61551 8.84651 -77.4701 -25.3797 -18.24 0.4238
397 3 H 9.52662 8.64603 8.03084 41.7061 -33.4978 48.2149 0.4238
398 2 O 2.08732 4.58162 9.49117 -5.08608 -99.5755 20.3785 -0.8476
399 3 H 1.78781 4.02129 10.2634 19.8619 43.6968 -56.1194 0.4238
400 3 H 2.41306 3.91787 8.81787 -27.3161 60.3676 44.817 0.4238
401 2 O 1.01061 3.0982 11.56 31.0039 -78.2615 -17.7807 -0.8476
402 3 H 1.60205 2.53325 12.1353 -43.7703 33.2446 -35.5739 0.4238
403 3 H 0.609058 2.54081 10.8333 26.9178 41.9149 59.8324 0.4238
404 2 O 15.6132 10.8993 14.3487 48.0109 66.3435 -71.0443 -0.8476
405 3 H 16.1787 10.6602 13.5594 -55.7018 22.8536 77.1307 0.4238
406 3 H 15.5446 11.8883 14.48 6.45238 -90.2612 -3.34101 0.4238
407 2 O 4.00579 5.3239 -14.8213 -83.0031 84.3019 -10.2711 -0.8476
408 3 H 4.10312 6.30094 -14.6318 -10.7859 -82.4879 -15.3581 0.4238
409 3 H 3.07978 5.11032 -15.1326 68.1951 6.24274 24.2515 0.4238
410 2 O 12.0267 15.9277 -7.84317 74.6032 41.4822 -89.0869 -0.8476
411 3 H 11.6827 16.7693 -8.25955 19.9902 -57.01 55.6993 0.4238
412 3 H 13.0081 15.735 -7.81336 -94.3698 19.8731 25.9362 0.4238
413 2 O 14.2268 11.2432 -13.8453 -79.4683 -64.5237 -1.31684 -0.8476
414 3 H 14.1757 10.5273 -14.5416 5.2521 68.3538 42.533 0.4238
415 3 H 13.4259 11.3396 -13.2543 78.6731 -2.29198 -47.0878 0.4238
416 2 O 18.0355 14.9525 -8.93419 27.1829 -62.9057 -120.04 -0.8476
417 3 H 18.3152 15.249 -9.84735 -26.7732 -22.2782 88.6896 0.4238
418 3 H 18.1323 13.9591 -8.87178 -9.80552 70.3056 14.8366 0.4238
419 2 O 12.982 11.1398 -8.98405 -13.1752 -47.5419 82.4727 -0.8476
420 3 H 12.7885 10.1664 -8.86144 18.4833 87.3867 -4.31539 0.4238
421 3 H 13.0483 11.5908 -8.09397 -2.82394 -39.4783 -65.5816 0.4238
422 2 O 1.26525 2.35313 -13.8857 -27.1863 -116.704 38.866 -0.8476
423 3 H 1.86083 1.58423 -13.6532 -45.053 76.5687 -29.6071 0.4238
424 3 H 0.350271 1.95013 -13.8653 72.5546 46.984 -9.23811 0.4238
425 2 O 7.24893 7.16242 -15.3777 10.7268 88.0034 -76.898 -0.8476
426 3 H 8.09539 7.67702 -15.5145 -58.0323 -58.8013 24.3832 0.4238
427 3 H 6.65647 7.35922 -16.1589 50.5799 -34.2017 81.608 0.4238
428 2 O 7.07431 14.2548 -8.68381 23.0549 52.8114 56.6622 -0.8476
429 3 H 6.97088 13.8125 -7.79293 7.43548 36.5523 -60.5322 0.4238
430 3 H 7.24219 15.2301 -8.54011 -18.2578 -85.5154 1.95924 0.4238
431 2 O 5.38993 3.54497 -9.04314 -14.8269 9.77932 95.5649 -0.8476
432 3 H 6.17358 3.5693 -8.4224 -55.7656 -6.13411 -48.893 0.4238
433 3 H 4.58633 3.52221 -8.44841 67.2577 -1.37432 -46.0363 0.4238
434 2 O 0.310651 4.27804 -9.79514 107.096 -17.9069 4.52019 -0.8476
435 3 H 0.94905 3.72293 -10.3283 -53.6239 40.3767 44.5586 0.4238
436 3 H 0.738496 4.54231 -8.93078 -42.2794 -25.7903 -62.6107 0.4238
437 2 O 9.09759 14.0889 -15.4683 87.9873 53.0193 44.1287 -0.8476
438 3 H 10.0145 13.7274 -15.2988 -78.1364 19.4703 -17.5555 0.4238
439 3 H 9.11811 14.9408 -14.945 -9.01514 -55.5228 -45.5852 0.4238
440 2 O 1.79089 2.84875 -11.3084 -67.3087 -71.1849 -60.8667 -0.8476
441 3 H 1.421 2.86174 -12.2374 29.8477 7.15706 69.7569 0.4238
442 3 H 1.41078 1.99732 -10.9471 33.8911 65.8004 -19.5857 0.4238