ITEM: TIMESTEP
0
ITEM: NUMBER OF ATOMS
216
ITEM: BOX BOUNDS pp pp pp
0.0000000000000000e+00 1.6869000000000000e+01
0.0000000000000000e+00 1.4609000000000000e+01
0.0000000000000000e+00 4.1478000000000002e+01
ITEM: ATOMS id element xu yu zu fx fy fz q
1 Pt              1.40573             0.811598               35.739 -1.51342919569582e-05 3.50942346309491e-06 -0.00855579304283625   0.0269959227606044
2 Pt              4.21718             0.811598               35.739    1.49045906682e-05 3.50935815481566e-06 -0.00855553563859435   0.0269951831151462
3 Pt              7.02864             0.811598               35.739 -1.48778087837305e-05 3.50959835965854e-06 -0.00855555433469179   0.0269952519188976
4 Pt               9.8401             0.811598               35.739 1.49057860653685e-05 3.50923334459805e-06 -0.00855556264016197   0.0269952705620713
5 Pt              12.6516             0.811598               35.739 -1.49824515331249e-05 3.50952379901907e-06 -0.00855558332391495   0.0269953029416135
6 Pt               15.463             0.811598               35.739 1.52134989823471e-05  3.5081275894035e-06 -0.00855593839061654   0.0269963318806505
7 Pt                    0              3.24639               35.739 -2.4758351100274e-07 -9.40595460694431e-06 -0.00852690915281402    0.026907464808854
8 Pt              2.81146              3.24639               35.739 -1.29973400784918e-08 -1.11779959900804e-05 -0.00854537239498935   0.0269682533722878
9 Pt              5.62291              3.24639               35.739 5.94216168410144e-09 -9.40682448993773e-06 -0.00852645773958718   0.0269061775530405
10 Pt              8.43437              3.24639               35.739 -1.45197611787804e-08 -1.11776609976129e-05 -0.00854535330348691   0.0269682246196134
11 Pt              11.2458              3.24639               35.739 5.22163432491826e-08 -9.40647509015643e-06 -0.00852650556534985   0.0269063071214067
12 Pt              14.0573              3.24639               35.739 1.87726505168394e-07 -1.11809030307089e-05 -0.00854559222305819    0.026968904360736
13 Pt              1.40573              5.68118               35.739 -1.63924628229874e-05 6.51274816535273e-06 -0.00852565081027554   0.0269047890617819
14 Pt              4.21718              5.68118               35.739 1.61630430798101e-05  6.5121490963316e-06 -0.00852539167380522   0.0269040432928949
15 Pt              7.02864              5.68118               35.739 -1.61351682301528e-05 6.51256539732918e-06 -0.00852541130728509   0.0269041150419707
16 Pt               9.8401              5.68118               35.739 1.61632521593161e-05 6.51205960734065e-06 -0.00852541905389614   0.0269041318761737
17 Pt              12.6516              5.68118               35.739 -1.62414511156677e-05 6.51249456775002e-06 -0.00852544034520979   0.0269041658747361
18 Pt               15.463              5.68118               35.739 1.64719999534762e-05 6.51061296741374e-06 -0.00852579272583869   0.0269051864583082
19 Pt                    0              8.11598               35.739 -2.47423070437285e-07 3.26572640530335e-06 -0.00854732674288877   0.0269681831374813
20 Pt              2.81146              8.11598               35.739 -1.3503845667214e-08 4.33625994571699e-06 -0.00856409074296875   0.0270232359413217
21 Pt              5.62291              8.11598               35.739 5.82474601292698e-09 3.26682849810481e-06 -0.00854687371296462   0.0269668906402362
22 Pt              8.43437              8.11598               35.739 -1.48592375222957e-08  4.3361929659839e-06  -0.0085640718540937   0.0270232079485783
23 Pt              11.2458              8.11598               35.739 5.32866785549276e-08 3.26668407496327e-06  -0.0085469220958759   0.0269670218932822
24 Pt              14.0573              8.11598               35.739 1.87365515953518e-07 4.33672127220392e-06 -0.00856430942522975     0.02702388295472
25 Pt              1.40573              10.5508               35.739 -1.59533943986523e-05 -1.03482833803949e-05 -0.00853602213330644   0.0269374950905712
26 Pt              4.21718              10.5508               35.739 1.57238953846797e-05 -1.03457882466327e-05 -0.00853576360384893   0.0269367517241441
27 Pt              7.02864              10.5508               35.739 -1.56963793185415e-05 -1.03463732477314e-05 -0.00853578291857251   0.0269368224972437
28 Pt               9.8401              10.5508               35.739 1.57244243833306e-05 -1.03461571281363e-05  -0.0085357908465951   0.0269368398110783
29 Pt              12.6516              10.5508               35.739 -1.58020640685888e-05 -1.03462721096781e-05 -0.00853581193407909   0.0269368736650884
30 Pt               15.463              10.5508               35.739  1.6032760686739e-05 -1.0345348207468e-05 -0.00853616522673168   0.0269378966250697
31 Pt                    0              12.9856               35.739 -2.47773508193572e-07 5.91931906324529e-06 -0.00851647385792929   0.0268744855063163
32 Pt              2.81146              12.9856               35.739 -1.26935219875816e-08 7.61117596192639e-06 -0.00853581169374249   0.0269379634893935
33 Pt              5.62291              12.9856               35.739  5.9799334436799e-09 5.92077789925994e-06 -0.00851602329109325   0.0268732004864079
34 Pt              8.43437              12.9856               35.739 -1.43483909813755e-08 7.61100342025121e-06 -0.00853579248416114   0.0269379345038915
35 Pt              11.2458              12.9856               35.739 5.17109831589145e-08 5.92053731122894e-06 -0.00851607081781361   0.0268733292671721
36 Pt              14.0573              12.9856               35.739 1.87935867128296e-07 7.61229348596607e-06 -0.00853603215183943   0.0269386173255367
37 Pt                    0              1.62319              38.0345  1.2393516188967e-09 3.04985997655632e-07 -3.02975564784852e-05 -0.00152908912630321
38 Pt              2.81146              1.62319              38.0345 1.88593965856379e-10 -2.1529053850379e-07 -3.11648802007359e-05 -0.00155455981384087
39 Pt              5.62291              1.62319              38.0345 3.91989564098882e-11 3.02973820074277e-07 -3.03112755081617e-05 -0.00152939071148974
40 Pt              8.43437              1.62319              38.0345 1.99356448007509e-11 -2.15103622242647e-07 -3.11640755886962e-05 -0.00155453898707199
41 Pt              11.2458              1.62319              38.0345 -5.08460561576206e-10 3.03334154703532e-07 -3.03094555965953e-05 -0.00152935148572153
42 Pt              14.0573              1.62319              38.0345 -2.27911139888486e-10 -2.16527160031626e-07 -3.1165000539773e-05 -0.00155456731903266
43 Pt              1.40573              4.05799              38.0345 -1.28622338508268e-07 1.80611466643261e-07 -3.18045267961727e-05 -0.00157600839214861
44 Pt              4.21718              4.05799              38.0345  1.2879985788996e-07 1.81270478424544e-07 -3.18063608211274e-05 -0.00157604047125872
45 Pt              7.02864              4.05799              38.0345 -1.28892165160031e-07 1.81195705649998e-07 -3.18059873190352e-05 -0.00157603351686821
46 Pt               9.8401              4.05799              38.0345 1.29045248083383e-07 1.81018723383893e-07 -3.18066562222752e-05 -0.00157604589221397
47 Pt              12.6516              4.05799              38.0345 -1.28596156770059e-07 1.81510411268152e-07 -3.18050089803344e-05 -0.00157601478851886
48 Pt               15.463              4.05799              38.0345  1.2747220214498e-07 1.83111840276224e-07 -3.17937285185566e-05 -0.00157576875169612
49 Pt                    0              6.49278              38.0345 1.27941747212481e-09 2.96292745788443e-08 -3.10921490900275e-05 -0.00155602452049663
50 Pt              2.81146              6.49278              38.0345 1.79635525652545e-10 -4.30712302272674e-07 -3.18963170228105e-05 -0.00157942192163077
51 Pt              5.62291              6.49278              38.0345 4.16644964607633e-11 2.76090136811563e-08 -3.11059952159177e-05 -0.00155632500958283
52 Pt              8.43437              6.49278              38.0345 1.24345097356581e-11 -4.30524663558565e-07 -3.18954966584442e-05 -0.00157940098599912
53 Pt              11.2458              6.49278              38.0345 -5.00938216038209e-10 2.79651431292697e-08 -3.11041646768182e-05 -0.00155628607035209
54 Pt              14.0573              6.49278              38.0345 -2.49400020477723e-10 -4.31880661591021e-07 -3.18963138522389e-05 -0.00157942658938389
55 Pt              1.40573              8.92757              38.0345 -1.09786044563795e-07  4.3540343584215e-08 -3.07402315942136e-05 -0.00154205157615613
56 Pt              4.21718              8.92757              38.0345 1.09981949170628e-07 4.42301056218834e-08 -3.07420995152033e-05 -0.00154208587106247
57 Pt              7.02864              8.92757              38.0345 -1.10088274056845e-07 4.41368178922016e-08 -3.07417097278373e-05 -0.00154207821642798
58 Pt               9.8401              8.92757              38.0345 1.10232365307177e-07 4.39799079861188e-08 -3.07423833323056e-05 -0.00154209099620003
59 Pt              12.6516              8.92757              38.0345 -1.09764396828749e-07 4.44581596135634e-08 -3.07407400268251e-05 -0.00154205924661328
60 Pt               15.463              8.92757              38.0345 1.08650717763688e-07 4.61229464738195e-08 -3.07297447595426e-05 -0.00154181573809861
61 Pt                    0              11.3624              38.0345 1.23451245699537e-09 4.08148626262641e-07 -3.13104725093784e-05 -0.00156179026867209
62 Pt              2.81146              11.3624              38.0345 2.03676192387608e-10 -4.54526165758986e-08 -3.22767377967087e-05 -0.00158966458510689
63 Pt              5.62291              11.3624              38.0345 4.42715574347152e-11 4.06183073967678e-07 -3.13245047883743e-05 -0.00156209406334836
64 Pt              8.43437              11.3624              38.0345  2.3679121058875e-11 -4.52691870582958e-08 -3.22758983758464e-05 -0.00158964312834157
65 Pt              11.2458              11.3624              38.0345 -5.30894871730202e-10 4.06534670227779e-07 -3.13226360604118e-05 -0.00156205420408291
66 Pt              14.0573              11.3624              38.0345 -2.0676044991084e-10 -4.66415984113985e-08 -3.2276939588822e-05 -0.00158967455390848
67 Pt              1.40573              13.7972              38.0345 -8.91524168871486e-08 -2.03108311977004e-07 -3.14928285246112e-05 -0.00156772669853939
68 Pt              4.21718              13.7972              38.0345 8.93608256771913e-08 -2.02470505762409e-07 -3.14948008588695e-05 -0.00156776302515767
69 Pt              7.02864              13.7972              38.0345 -8.94792594818369e-08 -2.02542659182863e-07 -3.14943825249853e-05 -0.00156775469752694
70 Pt               9.8401              13.7972              38.0345 8.96226370172092e-08 -2.02716628854756e-07 -3.1495074181581e-05 -0.00156776784986177
71 Pt              12.6516              13.7972              38.0345 -8.91255575200144e-08 -2.02230000226817e-07 -3.14934431987546e-05 -0.00156773661039889
72 Pt               15.463              13.7972              38.0345 8.79929138911226e-08 -2.00581162932062e-07 -3.14823645437124e-05 -0.00156749437838347
73 Pt                    0                    0              40.3301 7.34493528567578e-12 1.59837185184741e-09 -1.96567828245832e-07  6.0928768309456e-05
74 Pt              2.81146                    0              40.3301 1.70388838768846e-12 -3.65341107967404e-10 -2.01482510595461e-07 6.20600697932063e-05
75 Pt              5.62291                    0              40.3301 -2.46869469775595e-13 1.59648421901132e-09 -1.96707101301952e-07 6.09627953459683e-05
76 Pt              8.43437                    0              40.3301    1.65693353943e-13 -3.65423950274375e-10 -2.01489791720853e-07 6.20621764771801e-05
77 Pt              11.2458                    0              40.3301 -1.59958782635826e-12 1.59664277164489e-09 -1.96691825404303e-07 6.09590934065455e-05
78 Pt              14.0573                    0              40.3301 -5.63884672602579e-12 -3.66530755741049e-10 -2.01441680599596e-07 6.20497926228682e-05
79 Pt              1.40573              2.43479              40.3301 4.51430221156277e-10 1.26939303759571e-10 -2.05301577664902e-07 6.32094940418773e-05
80 Pt              4.21718              2.43479              40.3301 -4.44415939780382e-10 1.26841580622113e-10 -2.05367521346044e-07 6.32259722277025e-05
81 Pt              7.02864              2.43479              40.3301 4.44015124528217e-10 1.26527761283505e-10 -2.05364042399083e-07 6.32251888919176e-05
82 Pt               9.8401              2.43479              40.3301 -4.44623895020104e-10 1.27053814767678e-10 -2.05361208199377e-07 6.32243915374445e-05
83 Pt              12.6516              2.43479              40.3301 4.45621253079071e-10 1.27143822898588e-10 -2.05348019038567e-07 6.32210414216197e-05
84 Pt               15.463              2.43479              40.3301 -4.53725935522416e-10 1.29948438915615e-10 -2.05234540331603e-07 6.31937231876037e-05
85 Pt                    0              4.86959              40.3301 7.52499616616337e-12 2.68606750169456e-10 -1.93702004012666e-07 6.01117588424374e-05
86 Pt              2.81146              4.86959              40.3301 1.58333769235913e-12 -1.52435271245749e-09 -1.97552369277825e-07 6.09891108465956e-05
87 Pt              5.62291              4.86959              40.3301 -2.01962423498127e-13 2.66020593929848e-10 -1.93841793575817e-07 6.01460793898695e-05
88 Pt              8.43437              4.86959              40.3301 1.15318399229112e-13  -1.524468694961e-09 -1.97559220901501e-07 6.09911228356806e-05
89 Pt              11.2458              4.86959              40.3301 -1.5615873770531e-12 2.66248516299432e-10 -1.93826256911197e-07 6.01422937317229e-05
90 Pt              14.0573              4.86959              40.3301 -5.72737985555902e-12 -1.52496634661034e-09 -1.97508953772649e-07 6.09781317373777e-05
91 Pt              1.40573              7.30438              40.3301 4.03470241653027e-10  6.3213793231127e-10 -1.99145075384797e-07  6.1524144797701e-05
92 Pt              4.21718              7.30438              40.3301 -3.9670489047939e-10 6.32321081885894e-10 -1.99210319176869e-07  6.1540581831081e-05
93 Pt              7.02864              7.30438              40.3301 3.96289030528021e-10 6.31927219114058e-10 -1.99206637776771e-07 6.15397325991526e-05
94 Pt               9.8401              7.30438              40.3301 -3.96878799436521e-10 6.32524579379701e-10 -1.99204057512379e-07 6.15389934933364e-05
95 Pt              12.6516              7.30438              40.3301  3.9791220094106e-10 6.32572007012034e-10 -1.99190644200041e-07 6.15355634486276e-05
96 Pt               15.463              7.30438              40.3301 -4.0576793347557e-10 6.35415660154048e-10 -1.99079516055435e-07  6.1508655851256e-05
97 Pt                    0              9.73917              40.3301 7.54868642911857e-12 9.55749736327256e-10 -2.02441295340923e-07 6.25394040143154e-05
98 Pt              2.81146              9.73917              40.3301 1.79594951341099e-12 -7.43198727419883e-10 -2.08124754602823e-07 6.38695074767329e-05
99 Pt              5.62291              9.73917              40.3301 -2.30596580874682e-13 9.53710853812816e-10 -2.02583486610095e-07 6.25739531799846e-05
100 Pt              8.43437              9.73917              40.3301  1.4857465285687e-13 -7.43298936541062e-10 -2.08132070173877e-07 6.38716084857899e-05
101 Pt              11.2458              9.73917              40.3301 -1.63141660459565e-12 9.53883943982966e-10 -2.02567723364646e-07 6.25701416830625e-05
102 Pt              14.0573              9.73917              40.3301 -5.87901465918679e-12 -7.44084566511347e-10 -2.08083508028179e-07 6.38592270340611e-05
103 Pt              1.40573               12.174              40.3301 5.74796495205599e-10 -6.18322981735222e-10 -1.95604905354516e-07 6.05452521523948e-05
104 Pt              4.21718               12.174              40.3301 -5.68034252010236e-10 -6.18734661453615e-10 -1.95671580251487e-07 6.05621389472926e-05
105 Pt              7.02864               12.174              40.3301 5.67601381795154e-10 -6.19050939602282e-10 -1.95667611355373e-07 6.05612155701601e-05
106 Pt               9.8401               12.174              40.3301 -5.68204052981089e-10 -6.18463097426239e-10 -1.95665212785203e-07 6.05605148757852e-05
107 Pt              12.6516               12.174              40.3301 5.69391502673114e-10 -6.18421557614672e-10 -1.95652944766368e-07  6.0557354214421e-05
108 Pt               15.463               12.174              40.3301 -5.77181708176303e-10 -6.1510265905802e-10 -1.9554172732271e-07 6.05302602788016e-05
109 Pt              1.40573             0.811598               1.1476 5.70682049119845e-10 6.79287447764293e-10 1.99078093925308e-07 -6.15170989529964e-05
110 Pt              4.21718             0.811598               1.1476 -5.63799063120268e-10  6.7974142926486e-10 1.99144859572877e-07 -6.15339321765911e-05
111 Pt              7.02864             0.811598               1.1476 5.63374677623607e-10 6.80033730496272e-10 1.99141027855056e-07 -6.15330510696365e-05
112 Pt               9.8401             0.811598               1.1476 -5.63981510689184e-10  6.7947683752246e-10 1.99138494089819e-07 -6.15323181586223e-05
113 Pt              12.6516             0.811598               1.1476  5.6513710155852e-10 6.79415552031381e-10 1.99126130259472e-07 -6.15291462005178e-05
114 Pt               15.463             0.811598               1.1476 -5.73056884604615e-10 6.76172616082623e-10 1.99013834533805e-07 -6.15018871376848e-05
115 Pt                    0              3.24639               1.1476 7.46345796655617e-12 -1.48536162070446e-09 2.02318857349049e-07 -6.25320334588688e-05
116 Pt              2.81146              3.24639               1.1476 1.81644408922051e-12 3.06631587974924e-10 2.08168514244919e-07 -6.38979907184185e-05
117 Pt              5.62291              3.24639               1.1476 -2.47324480233169e-13 -1.48356541734395e-09 2.02460372652864e-07 -6.25664060558771e-05
118 Pt              8.43437              3.24639               1.1476 1.66785236295537e-13 3.06717524094417e-10 2.08175950278417e-07 -6.3900119765893e-05
119 Pt              11.2458              3.24639               1.1476 -1.63650120144408e-12 -1.48371477291226e-09 2.02444767377966e-07 -6.25626375453498e-05
120 Pt              14.0573              3.24639               1.1476 -5.81324843266674e-12 3.07737666347056e-10 2.08128082149584e-07 -6.38879088444825e-05
121 Pt              1.40573              5.68118               1.1476 4.66580512862256e-10 -2.03184981843724e-10 1.95343971127539e-07 -6.05038599097661e-05
122 Pt              4.21718              5.68118               1.1476 -4.59898716513148e-10 -2.03182191915306e-10 1.95409593172297e-07 -6.05204851739886e-05
123 Pt              7.02864              5.68118               1.1476 4.59470650733724e-10 -2.02800383696311e-10 1.95405727122371e-07 -6.05195840802334e-05
124 Pt               9.8401              5.68118               1.1476 -4.60060025961523e-10 -2.03412465015394e-10  1.9540329671291e-07 -6.0518877523748e-05
125 Pt              12.6516              5.68118               1.1476 4.61170721753992e-10 -2.0344812621911e-10 1.95390371445558e-07 -6.05155510885821e-05
126 Pt               15.463              5.68118               1.1476 -4.68914554910325e-10 -2.06510639279818e-10 1.95279985108863e-07 -6.04886806276671e-05
127 Pt                    0              8.11598               1.1476 7.59535710993337e-12 -1.69369630654563e-10 1.96978915440336e-07 -6.10325341668898e-05
128 Pt              2.81146              8.11598               1.1476  1.6451472845093e-12 1.53443065391537e-09 2.01350949908105e-07 -6.20432220164448e-05
129 Pt              5.62291              8.11598               1.1476 -2.02363812297188e-13 -1.66812956320141e-10 1.97120008127955e-07 -6.10670603534676e-05
130 Pt              8.43437              8.11598               1.1476 1.15818709623332e-13 1.53454884436863e-09 2.01357893046596e-07 -6.2045247873596e-05
131 Pt              11.2458              8.11598               1.1476 -1.58936073467019e-12 -1.67035159260618e-10 1.97104284678042e-07 -6.10632365024626e-05
132 Pt              14.0573              8.11598               1.1476 -5.82975180756386e-12 1.53499818434531e-09   2.013077824006e-07 -6.20323583540473e-05
133 Pt              1.40573              10.5508               1.1476 3.93493679722287e-10 -6.06706771104081e-10 2.05228592631568e-07 -6.32124829890888e-05
134 Pt              4.21718              10.5508               1.1476 -3.86523054562593e-10 -6.06834812476529e-10 2.05293993152751e-07 -6.32288269987765e-05
135 Pt              7.02864              10.5508               1.1476 3.86124002477712e-10 -6.06484652622455e-10  2.0529055825647e-07 -6.32280527628808e-05
136 Pt               9.8401              10.5508               1.1476 -3.86726008034222e-10 -6.07024892391912e-10 2.05287716880027e-07 -6.32272549448178e-05
137 Pt              12.6516              10.5508               1.1476 3.87682470183523e-10 -6.07108412851456e-10 2.05274169241925e-07 -6.32238151930206e-05
138 Pt               15.463              10.5508               1.1476 -3.95762639827098e-10 -6.09770246845336e-10 2.05161175797598e-07 -6.31966278079668e-05
139 Pt                    0              12.9856               1.1476  7.3587688023173e-12 -1.17402014853837e-09 1.93155819544391e-07 -6.00034264907658e-05
140 Pt              2.81146              12.9856               1.1476 1.61991238729061e-12 7.84755923885032e-10 1.97380283435379e-07 -6.09659916761307e-05
141 Pt              5.62291              12.9856               1.1476 -2.30467112780844e-13 -1.17186743093287e-09  1.9329434235109e-07 -6.00374292160124e-05
142 Pt              8.43437              12.9856               1.1476  1.4752552614428e-13 7.84848943728968e-10 1.97387351493889e-07 -6.09680560180868e-05
143 Pt              11.2458              12.9856               1.1476 -1.56846217532207e-12 -1.17205299087443e-09 1.93279100662821e-07  -6.003372188191e-05
144 Pt              14.0573              12.9856               1.1476 -5.6019256363896e-12 7.85770677559062e-10 1.97338444331644e-07 -6.0955401003232e-05
145 Pt                    0              1.62319               3.4432 1.22431550699929e-09 -4.7423316841278e-07 3.09402011800521e-05  0.00154935453899559
146 Pt              2.81146              1.62319               3.4432 2.03781390083411e-10 7.73092189367733e-09  3.1908309070545e-05  0.00157743074023688
147 Pt              5.62291              1.62319               3.4432 4.27580583357133e-11 -4.72262286917332e-07  3.0954151362879e-05  0.00154965829267459
148 Pt              8.43437              1.62319               3.4432 2.51637731220795e-11 7.54708942140647e-09 3.19074795745108e-05  0.00157740941673551
149 Pt              11.2458              1.62319               3.4432 -5.28932448151217e-10 -4.72616384593595e-07 3.09522938943698e-05  0.00154961845411934
150 Pt              14.0573              1.62319               3.4432 -2.04169281127986e-10 8.94756940771056e-09 3.19085327002001e-05   0.0015774411292649
151 Pt              1.40573              4.05799               3.4432 -9.52476025832356e-08 1.04712733299983e-07 3.07569976952258e-05  0.00154321891844045
152 Pt              4.21718              4.05799               3.4432 9.54542989180615e-08 1.04037047913396e-07 3.07589209972721e-05  0.00154325476547754
153 Pt              7.02864              4.05799               3.4432 -9.55699748930313e-08 1.04126382085941e-07 3.07585140093838e-05  0.00154324660712413
154 Pt               9.8401              4.05799               3.4432  9.5710961562356e-08 1.04284977115213e-07 3.07591967257154e-05  0.00154325966768231
155 Pt              12.6516              4.05799               3.4432 -9.5224973862824e-08 1.03806761012821e-07 3.07575608328124e-05   0.0015432279717266
156 Pt               15.463              4.05799               3.4432   9.410631486636e-08 1.02130454010972e-07 3.07466134032826e-05  0.00154298579504686
157 Pt                    0              6.49278               3.4432 1.27056603745924e-09 -1.16263718901889e-07 3.14203055234226e-05  0.00156636357769031
158 Pt              2.81146              6.49278               3.4432 1.87978051152304e-10 3.22508161049121e-07 3.22796928788732e-05  0.00159119869220165
159 Pt              5.62291              6.49278               3.4432 4.35576216954388e-11 -1.14266687116467e-07  3.1434272491978e-05  0.00156666526907158
160 Pt              8.43437              6.49278               3.4432 1.53415613619526e-11 3.22322208869762e-07 3.22788593230939e-05  0.00159117748998443
161 Pt              11.2458              6.49278               3.4432 -5.12705463960851e-10 -1.14619607808776e-07 3.14324210280132e-05  0.00156662599182418
162 Pt              14.0573              6.49278               3.4432 -2.36368771957697e-10 3.23664524898377e-07 3.22797467684565e-05  0.00159120495210914
163 Pt              1.40573              8.92757               3.4432 -1.31491325485159e-07 -2.31944604940409e-07 3.14336770411834e-05  0.00156362431352785
164 Pt              4.21718              8.92757               3.4432 1.31668341888141e-07 -2.32623850397816e-07 3.14354875853886e-05  0.00156365616376672
165 Pt              7.02864              8.92757               3.4432 -1.31759632835746e-07 -2.32539896556893e-07  3.1435119338592e-05  0.00156364928878392
166 Pt               9.8401              8.92757               3.4432 1.31911436917753e-07 -2.32371125841531e-07 3.14357841686626e-05  0.00156366162547778
167 Pt              12.6516              8.92757               3.4432 -1.31467429191659e-07 -2.32858289909629e-07 3.14341331414629e-05  0.00156363026122815
168 Pt               15.463              8.92757               3.4432 1.30350207713342e-07 -2.3447503743968e-07  3.1422919045009e-05  0.00156338425301788
169 Pt                    0              11.3624               3.4432 1.25808251465815e-09 -1.53644847232412e-07 3.03373112604254e-05  0.00153092636707608
170 Pt              2.81146              11.3624               3.4432 1.80140098555295e-10 3.59581116524477e-07  3.1148236761543e-05  0.00155477288327939
171 Pt              5.62291              11.3624               3.4432 3.89011079595309e-11 -1.51615539474573e-07 3.03509915538096e-05  0.00153122680842888
172 Pt              8.43437              11.3624               3.4432 1.55095105633757e-11 3.59392944595444e-07 3.11474353742325e-05  0.00155475218977908
173 Pt              11.2458              11.3624               3.4432 -4.97424569737098e-10 -1.51975970958133e-07 3.03491833167494e-05  0.00153118789607934
174 Pt              14.0573              11.3624               3.4432 -2.43417033614969e-10 3.60801241632396e-07 3.11482787958328e-05  0.00155477838884716
175 Pt              1.40573              13.7972               3.4432 -1.00914899813574e-07 1.06252543474476e-07 3.18484777577039e-05  0.00157878967292719
176 Pt              4.21718              13.7972               3.4432 1.01113070238749e-07 1.05621265961984e-07 3.18504179279102e-05  0.00157882467171137
177 Pt              7.02864              13.7972               3.4432 -1.01223259948943e-07 1.05688140610111e-07 3.18500117045873e-05  0.00157881677263394
178 Pt               9.8401              13.7972               3.4432 1.01370906103284e-07 1.05868986061515e-07 3.18506980141053e-05  0.00157882967785537
179 Pt              12.6516              13.7972               3.4432  -1.008871091047e-07 1.05377734458047e-07 3.18490636297607e-05  0.00157879864689681
180 Pt               15.463              13.7972               3.4432 9.97527172906872e-08 1.03755615318584e-07 3.18378706198631e-05  0.00157855505592589
181 Pt                    0                    0               5.7387 -2.47793815965312e-07 4.38287296820189e-08  0.00851236006962667  -0.0268625793573558
182 Pt              2.81146                    0               5.7387 -1.25981826771521e-08 -2.96295384569788e-07  0.00853204582639862  -0.0269272712862295
183 Pt              5.62291                    0               5.7387 6.00817785907155e-09 4.32969853479074e-08  0.00851190983547074   -0.026861295498823
184 Pt              8.43437                    0               5.7387 -1.42784038561291e-08 -2.96316710258712e-07   0.0085320265771436  -0.0269272421190682
185 Pt              11.2458                    0               5.7387 5.14632851968354e-08 4.33444161042785e-08  0.00851195724947086  -0.0268614239193174
186 Pt              14.0573                    0               5.7387 1.88008454046763e-07 -2.95831879879402e-07  0.00853226651631807  -0.0269279258140606
187 Pt              1.40573              2.43479               5.7387 -1.54583404764225e-05  9.1402830437231e-06  0.00854774727642764  -0.0269726970471887
188 Pt              4.21718              2.43479               5.7387 1.52287383362131e-05 9.13799837647432e-06   0.0085474894352453  -0.0269719560655107
189 Pt              7.02864              2.43479               5.7387 -1.52016534210817e-05 9.13851823497179e-06  0.00854750837991317  -0.0269720256725999
190 Pt               9.8401              2.43479               5.7387 1.52296568710512e-05 9.13834310336061e-06  0.00854751652835105  -0.0269720437166374
191 Pt              12.6516              2.43479               5.7387 -1.53066972029711e-05 9.13843237465663e-06  0.00854753737490132  -0.0269720768679996
192 Pt               15.463              2.43479               5.7387  1.5537583161133e-05 9.13768863707858e-06  0.00854789173511994   -0.026973103215192