ITEM: TIMESTEP
0
ITEM: NUMBER OF ATOMS
915
ITEM: BOX BOUNDS pp pp pp
0.0000000000000000e+00 1.6869000000000000e+01
0.0000000000000000e+00 1.4609000000000000e+01
0.0000000000000000e+00 4.1478000000000002e+01
ITEM: ATOMS id element xu yu zu fx fy fz q
1 Pt           1.40569997           0.81160003          35.73899841 -0.000285355928694351 -0.00700441246933117  -0.0131081853679121  -0.0315352082214695
2 Pt            4.2171998           0.81160003          35.73899841  0.00522014960072004  -0.0079505854431715 -0.00872888137648939  -0.0284238740586785
3 Pt           7.02859974           0.81160003          35.73899841 -0.00389616924526853 -0.00207846628820022  -0.0108091005824031  -0.0319037918804696
4 Pt           9.84009933           0.81160003          35.73899841 -0.000994195320973267  0.00453918791603328  -0.0146051377798577  -0.0341970515663542
5 Pt          12.65159988           0.81160003          35.73899841  0.00021861950748366 7.28972632724536e-05 -0.00222584223689219  -0.0134751644777044
6 Pt          15.46299934           0.81160003          35.73899841   0.0018852621696019 -0.00404957960737468 -0.00991818618130752  -0.0292406005448712
7 Pt                    0           3.24640012          35.73899841  0.00196332610133845  0.00161448275870047 -0.00408669070897288   0.0187149034260281
8 Pt           2.81149983           3.24640012          35.73899841 0.000434255147445111 -0.00155349637999257   -0.072785675367007   0.0712074300868682
9 Pt           5.62290001           3.24640012          35.73899841  0.00166319741992837  0.00181958553280822 -0.00263438668531574  -0.0154675534416706
10 Pt            8.4343996           3.24640012          35.73899841  0.00169900509651344 -0.00151266224634395 -0.00998376510205642  -0.0296394813230252
11 Pt          11.24580002           3.24640012          35.73899841 -0.00155730959747133 0.000190073153226827  -0.0062950130248695  -0.0247066432458962
12 Pt          14.05730057           3.24640012          35.73899841 -0.000864206710249185 0.000840201036125259 -0.00185331814290348  -0.0126573513147757
13 Pt           1.40569997           5.68120003          35.73899841 0.000966530122505104  -0.0014003711151841 -0.00337300412515864   0.0172527513131564
14 Pt            4.2171998           5.68120003          35.73899841 0.000706514286955261 -0.000391197984019753 -0.000143410007410294 -0.00335134688772343
15 Pt           7.02859974           5.68120003          35.73899841 -0.00127370186359186 -0.00181290432182391 -0.00119470956869417  -0.0108377869583054
16 Pt           9.84009933           5.68120003          35.73899841  0.00858010721713876  0.00131881873749994  -0.0107618124262111  -0.0311660898204362
17 Pt          12.65159988           5.68120003          35.73899841 -0.00548354559487786 0.000889285497659687  -0.0193310040437019  -0.0422204408606327
18 Pt          15.46299934           5.68120003          35.73899841 -0.000693402865059385  0.00195439291641191 -0.00236483976463508  -0.0151919406310595
19 Pt                    0           8.11599922          35.73899841 -0.00570949243773557 -0.00265479684387867   -0.005573690687471  -0.0203777382253254
20 Pt           2.81149983           8.11599922          35.73899841  0.00316554828127666  0.00886251997883111   -0.066412544799709   0.0707050415984524
21 Pt           5.62290001           8.11599922          35.73899841 -0.000312525998228648  0.00307358462736227  -0.0107802613520119   0.0308890387855664
22 Pt            8.4343996           8.11599922          35.73899841 -0.00608709770410648  0.00456056527995638  -0.0523641283467901   0.0604424004610471
23 Pt          11.24580002           8.11599922          35.73899841   0.0023447397955796 -0.00420179244543274 -0.00718505940035562  -0.0262993259000149
24 Pt          14.05730057           8.11599922          35.73899841  0.00226342404213822  0.00037414734325654  -0.0106374311176411  -0.0315408538071065
25 Pt           1.40569997          10.55079937          35.73899841  0.00909670190983261  0.00136073831383725  -0.0735376262853814   0.0747240476838512
26 Pt            4.2171998          10.55079937          35.73899841 -0.00907467258767801 -0.00236774452496098  -0.0377516891085769    0.055232240289946
27 Pt           7.02859974          10.55079937          35.73899841 0.000194812451714894 0.000307872954084431 -5.13099851843342e-05 -0.00146401888902111
28 Pt           9.84009933          10.55079937          35.73899841  0.00135062755695421  0.00290950458129517 -0.00460562256882159  -0.0207203552800975
29 Pt          12.65159988          10.55079937          35.73899841 -0.00394675773149728 -0.000581207816363537  -0.0171847633673164  -0.0377661611983841
30 Pt          15.46299934          10.55079937          35.73899841   -0.005496458997794 -0.00134124064320709  -0.0174601609393287  -0.0351971358298138
31 Pt                    0          12.98560047          35.73899841 -0.00185911213912977  0.00403886634391615 -0.00297913607725006  -0.0165148139182715
32 Pt           2.81149983          12.98560047          35.73899841 -0.000103033759683525 -0.000756781054241306 -0.000126354624208756  0.00268437944344488
33 Pt           5.62290001          12.98560047          35.73899841 -0.000648353469681067  0.00873066119339042   -0.015776525681193  -0.0371593141013451
34 Pt            8.4343996          12.98560047          35.73899841 -0.000349649577882151 -0.00133733642285101  -0.0045788983591202   -0.020884879265745
35 Pt          11.24580002          12.98560047          35.73899841 -0.000383471202941112 -0.000625449646977885 -0.00199181105739129  -0.0138168789880338
36 Pt          14.05730057          12.98560047          35.73899841  0.00126699655738336 -8.53725672671801e-05 -0.00390015711361716  -0.0188723903156762
37 Pt                    0           1.62320006          38.03450012 3.63085042397422e-07 -6.70461205975863e-06 -6.80898249863514e-06 0.000738729120880152
38 Pt           2.81149983           1.62320006          38.03450012 8.09992064257788e-09 -4.0402098738378e-07 -7.12121526977746e-08 1.92344184332773e-05
39 Pt           5.62290001           1.62320006          38.03450012 8.62210697050624e-07 2.68475065697554e-06 -1.13431918019294e-05  0.00104533149895506
40 Pt            8.4343996           1.62320006          38.03450012 -2.42162178842735e-06 -4.64115084036761e-06 -2.86142982530645e-05  0.00169777786866444
41 Pt          11.24580002           1.62320006          38.03450012 -2.94431246831125e-06 -3.05262665113448e-06 -1.75380887090132e-05   0.0012875643219077
42 Pt          14.05730057           1.62320006          38.03450012 3.63974796068563e-06 -2.02326282471304e-06 -1.80854544266222e-05  0.00124019020899197
43 Pt           1.40569997           4.05799961          38.03450012 2.33006442807516e-05 -1.26426098530497e-05 -3.17349507556423e-05 -0.00182620693232409
44 Pt            4.2171998           4.05799961          38.03450012 -2.19626176575827e-05 -6.16415045116067e-06 -2.39208736146869e-05 -0.00149511263612722
45 Pt           7.02859974           4.05799961          38.03450012 5.39292469843045e-06 -2.87904552305444e-06 -3.47518711276201e-06 0.000698112658724785
46 Pt           9.84009933           4.05799961          38.03450012 -6.12681855908941e-06 4.04433119810372e-06 -1.89693934390173e-05  0.00139912093157002
47 Pt          12.65159988           4.05799961          38.03450012 -1.27418018725241e-06   5.560382732658e-06 -1.52504340666281e-05  0.00122385320201415
48 Pt          15.46299934           4.05799961          38.03450012 -2.44449269981166e-06 1.74484203912535e-06 -2.45881378328091e-06 0.000442171070986453
49 Pt                    0           6.49280024          38.03450012 6.81490399851809e-07 -3.27375157004742e-07 -6.0339352304284e-07 -0.000166849778011104
50 Pt           2.81149983           6.49280024          38.03450012 -6.74034398526352e-06 2.64256847366285e-05 -3.06164940683272e-05 -0.00173216793400311
51 Pt           5.62290001           6.49280024          38.03450012 -1.25902445907998e-06 5.31342009682943e-06 -1.13332854643073e-05 -0.000978213437525218
52 Pt            8.4343996           6.49280024          38.03450012 -7.10975111066954e-07 6.84646833429953e-06 -1.37537138378396e-07 -0.000298932659677441
53 Pt          11.24580002           6.49280024          38.03450012 1.66887997661528e-06 -9.37500364156162e-07 6.83132856750486e-07 0.000399890972568901
54 Pt          14.05730057           6.49280024          38.03450012 -9.82695471749649e-06 -1.77515220940565e-06 -2.15099542551395e-05  0.00138776993747476
55 Pt           1.40569997           8.92759991          38.03450012  4.5075167212811e-05 2.66213321990528e-05 -4.51775595023823e-05  -0.0022413651312482
56 Pt            4.2171998           8.92759991          38.03450012 -3.10837584239523e-05 1.75906984060396e-06 -8.39367917753627e-05 -0.00290588796257831
57 Pt           7.02859974           8.92759991          38.03450012 9.97418464914054e-06 -1.65600110809259e-05 -1.39123257932266e-05 -0.00136005884997421
58 Pt           9.84009933           8.92759991          38.03450012 -3.60998554198762e-06 -2.24631558113737e-06 4.17029459899814e-07 -0.000198517940127838
59 Pt          12.65159988           8.92759991          38.03450012 1.73515458632469e-06   5.227666056825e-06 -3.34135214216918e-05  0.00180153240068611
60 Pt          15.46299934           8.92759991          38.03450012  -2.025968828272e-06 7.30001146044786e-06 -1.1574076119052e-05  0.00117384448450961
61 Pt                    0          11.36240005          38.03450012 -2.64404452323078e-06 9.85814721778589e-07 -4.54340670173067e-07 0.000121873377055436
62 Pt           2.81149983          11.36240005          38.03450012 -7.26110327060966e-06 -3.16559583433828e-05 -2.94104642617112e-05 -0.00192260920210582
63 Pt           5.62290001          11.36240005          38.03450012 -1.60903829580601e-06 -2.08147326167482e-06 -1.28295116747632e-07 -0.000152646918694251
64 Pt            8.4343996          11.36240005          38.03450012 3.09857215360461e-07 2.75849404369438e-07 2.18086195905383e-07 0.000119104016371485
65 Pt          11.24580002          11.36240005          38.03450012 4.14370822730844e-06 -3.4729655475692e-06 -5.99168272412137e-06 0.000909323268277252
66 Pt          14.05730057          11.36240005          38.03450012 -9.29172018887456e-07 -8.26440138071112e-06 -3.7453121469752e-05  0.00192821076303982
67 Pt           1.40569997          13.79719925          38.03450012 -5.72190611768887e-07 6.38583450321158e-07 1.85319207075423e-07 0.000204046935706365
68 Pt            4.2171998          13.79719925          38.03450012 -3.40014346593035e-08 6.90589835411821e-09 -4.26804326200859e-08 -8.83052622217633e-06
69 Pt           7.02859974          13.79719925          38.03450012 2.61842642114559e-06 -1.33060522547521e-06 -1.28038138117738e-05  0.00117952569283274
70 Pt           9.84009933          13.79719925          38.03450012 -2.69573620963904e-06 1.02586681695392e-05 -2.79206279168622e-05  0.00156649550956808
71 Pt          12.65159988          13.79719925          38.03450012 2.11856035380585e-07 -6.88766563984419e-07 -1.49123252463935e-05  0.00114978436240989
72 Pt          15.46299934          13.79719925          38.03450012 -1.55311507675521e-06 2.50076628375702e-07 -1.27978810370679e-06 0.000565518517569978
73 Pt                    0                    0          40.33010101 1.36414484659185e-09 -9.34197633730637e-10 -1.55327224148445e-09 9.96324525390593e-06
74 Pt           2.81149983                    0          40.33010101 -1.98598762523184e-10 -2.89922275306752e-10 -1.69751587321734e-08 3.92421381945046e-05
75 Pt           5.62290001                    0          40.33010101 4.96320442730459e-09  3.9969456077268e-09 -2.57108240740067e-09 -1.57085218974462e-05
76 Pt            8.4343996                    0          40.33010101 1.81131467271812e-09 1.31940120959573e-09 -2.10062665044179e-08 -5.21858688179635e-05
77 Pt          11.24580002                    0          40.33010101 6.11190481677439e-10 -7.10747401073228e-09 -4.08011323609045e-08 -6.51916088402448e-05
78 Pt          14.05730057                    0          40.33010101 -9.36444183967676e-09 3.50895758159943e-09 -1.52891889521842e-08 -4.04861415681013e-05
79 Pt           1.40569997           2.43479991          40.33010101 7.55686948363022e-09 -3.69416341052381e-09 -2.17400597259052e-08 -4.13980312835114e-05
80 Pt            4.2171998           2.43479991          40.33010101 -7.96961571469261e-09 -5.36170689158627e-09 -9.38217840653516e-09 -2.92346558723749e-05
81 Pt           7.02859974           2.43479991          40.33010101 3.66068858033197e-09 -7.35402642565011e-09 -7.71519039061983e-09 -3.23609168555062e-05
82 Pt           9.84009933           2.43479991          40.33010101 1.68830007332532e-09 1.84317769999569e-09 -4.76927323120076e-08 -6.76092922489355e-05
83 Pt          12.65159988           2.43479991          40.33010101 -1.33170839845792e-09 -1.63786646321428e-09  -6.921572928887e-08 -7.95498636231243e-05
84 Pt          15.46299934           2.43479991          40.33010101 -1.53031870157476e-09 4.83292513859514e-11 -3.11640851562607e-08 -5.31827472272525e-05
85 Pt                    0           4.86959982          40.33010101 1.44779568560921e-08 1.16390290178752e-09 -1.21060166479911e-08 3.29285212697162e-05
86 Pt           2.81149983           4.86959982          40.33010101 1.60464703717189e-09 2.97372810058333e-08 -2.98480956481145e-08 5.33483249573207e-05
87 Pt           5.62290001           4.86959982          40.33010101 -2.70696497630069e-08  1.0702774342705e-08 -4.10359354863705e-08  6.0196860122812e-05
88 Pt            8.4343996           4.86959982          40.33010101 -1.91698836876992e-09 7.54776238148482e-09 -1.35008534591244e-08 2.62256573741054e-05
89 Pt          11.24580002           4.86959982          40.33010101 -5.70085623124305e-10 -7.94568076300827e-09 -3.73390746809289e-09 -1.84110451688729e-05
90 Pt          14.05730057           4.86959982          40.33010101 -8.55971644781617e-10 1.32665137564139e-09 -9.53840604707176e-09 -3.31689833888149e-05
91 Pt           1.40569997           7.30439949          40.33010101 -8.75613019247329e-09 8.18856725248196e-09 -2.98186011498108e-08 5.71074241852144e-05
92 Pt            4.2171998           7.30439949          40.33010101 8.41382406950416e-09 8.28639150278425e-10 -5.03200929905686e-08 7.10889914902054e-05
93 Pt           7.02859974           7.30439949          40.33010101 1.41632177859881e-08  5.3524265100702e-09 -8.81484435189549e-09 -2.38096203815339e-05
94 Pt           9.84009933           7.30439949          40.33010101 -2.07440898024545e-08 1.91629324838234e-08 -3.24677463647876e-08 -4.93103175135274e-05
95 Pt          12.65159988           7.30439949          40.33010101 1.01886505684634e-08 1.18749506484596e-08 -9.32304021246925e-09 -3.31682493713634e-05
96 Pt          15.46299934           7.30439949          40.33010101 -1.76220626189674e-08 1.56126903634248e-09 -1.33218770463953e-08 -3.43236855154787e-05
97 Pt                    0           9.73919964          40.33010101 1.02889490200723e-09 -5.0073711069411e-09 -1.81704066452332e-09 1.07412472268981e-05
98 Pt           2.81149983           9.73919964          40.33010101 -4.00282488999568e-09 2.08451351636396e-09 -5.48484628367011e-09 -1.24512674833582e-05
99 Pt           5.62290001           9.73919964          40.33010101 -4.43869472561187e-09 -2.63164419790425e-08 -3.77836862305825e-08 5.58613295818448e-05
100 Pt            8.4343996           9.73919964          40.33010101 4.84826206103936e-09 -1.17140271896222e-08 -6.37158854996804e-09 -2.52909644172368e-05
101 Pt          11.24580002           9.73919964          40.33010101 7.69336370595668e-10 -1.94744628581455e-10 4.44338165662393e-10 -2.39634087376762e-06
102 Pt          14.05730057           9.73919964          40.33010101 -7.97061341175495e-09 -3.00895464430233e-09 -1.46432534366999e-08 -4.53811852544179e-05
103 Pt           1.40569997          12.17399979          40.33010101 -2.98426961392506e-09 -2.57990818647059e-09 -1.68831410971142e-09 -8.13312251646576e-06
104 Pt            4.2171998          12.17399979          40.33010101 -1.03374198696341e-08  8.1187112886276e-09 -2.48193367238197e-08 4.63447240010402e-05
105 Pt           7.02859974          12.17399979          40.33010101 -3.24965050469217e-09 -4.29600877286848e-09 -6.33058995636366e-09 1.93725637701056e-05
106 Pt           9.84009933          12.17399979          40.33010101 9.29856994416327e-09 1.66411364154018e-08 -2.01304000474412e-08 -4.29547951303463e-05
107 Pt          12.65159988          12.17399979          40.33010101 8.14436835846991e-09 6.02253377589294e-09 -2.96516518366728e-08 -5.53797869166471e-05
108 Pt          15.46299934          12.17399979          40.33010101 -9.50066579065431e-10 8.53498298996277e-12  2.9490595394885e-10 -2.46205869039026e-06
109 Pt           1.40569997           0.81160003           1.14759994 1.40802509565225e-08 -2.41205031032552e-08  1.7467007825692e-08 3.55789283983387e-05
110 Pt            4.2171998           0.81160003           1.14759994 1.50691758613813e-10 -1.21876200152623e-08 4.14642682118881e-09   2.253938628128e-05
111 Pt           7.02859974           0.81160003           1.14759994 4.88263345920806e-09 -1.16901844505962e-08 8.76895133618045e-08 8.59411903686227e-05
112 Pt           9.84009933           0.81160003           1.14759994 -3.76602600693754e-09 -6.13546183662521e-09 5.25244557394299e-09 2.34212149825586e-05
113 Pt          12.65159988           0.81160003           1.14759994  9.0572231238099e-09 1.19296462112881e-08 1.23647031919788e-08 -3.2958752638122e-05
114 Pt          15.46299934           0.81160003           1.14759994 2.19891940308461e-10 1.04528259625161e-09 -1.22836811807443e-09 -9.26292746922572e-06
115 Pt                    0           3.24640012           1.14759994  8.9408799426592e-09 -4.39773825920405e-09 1.15044279047494e-08 -4.12470853053697e-05
116 Pt           2.81149983           3.24640012           1.14759994 -3.2964685072455e-09 1.44993235381919e-08 2.59538216984499e-08 -5.34948393419622e-05
117 Pt           5.62290001           3.24640012           1.14759994 2.95345840000647e-08 1.22476640827046e-09 2.99593947738258e-08 4.62442674560987e-05
118 Pt            8.4343996           3.24640012           1.14759994 2.83081959511249e-09 -1.96741387940985e-09 2.84084930837814e-09 2.05099467733933e-05
119 Pt          11.24580002           3.24640012           1.14759994 -4.6397673025276e-09 2.22757885919521e-09 1.23988985440434e-09 1.45470204914952e-05
120 Pt          14.05730057           3.24640012           1.14759994 8.24605889799225e-09 -7.61641636632485e-09 6.47387588584007e-09 -2.73811702949611e-05
121 Pt           1.40569997           5.68120003           1.14759994  1.0397127408012e-08 -9.97009395231299e-09 1.65314066747434e-08 -4.33134287148011e-05
122 Pt            4.2171998           5.68120003           1.14759994 1.56559155616017e-08 4.44187933904517e-09 1.14167458745612e-08 2.64899548175263e-05
123 Pt           7.02859974           5.68120003           1.14759994 -4.53802291180504e-09 1.47391044478717e-08 4.98729723669891e-09 3.17694615939792e-05
124 Pt           9.84009933           5.68120003           1.14759994 5.21438297400994e-09 1.72340421622887e-08 3.70247090844731e-09 4.04820791017931e-05
125 Pt          12.65159988           5.68120003           1.14759994 -9.70678165298825e-09 8.55122921595801e-09 2.71086036030457e-09 2.58491008580797e-05
126 Pt          15.46299934           5.68120003           1.14759994 -1.29858690091832e-09 -9.94473547963517e-09 1.43665289936235e-08 -3.69314628432437e-05
127 Pt                    0           8.11599922           1.14759994 -9.9585117269755e-10 -2.61644949749936e-11 9.46868223608109e-10 -8.98711069322196e-06
128 Pt           2.81149983           8.11599922           1.14759994 3.52229723535691e-10 2.36143668458123e-09 3.27790558589076e-09 1.40601196071102e-05
129 Pt           5.62290001           8.11599922           1.14759994 3.74563003768163e-08 5.04870166781156e-09 1.46134921847534e-07 0.000112081939067599
130 Pt            8.4343996           8.11599922           1.14759994 5.01507013468538e-08 -3.45651998646529e-08 1.72983899025585e-07 0.000128961562077064
131 Pt          11.24580002           8.11599922           1.14759994 -3.72152254197678e-08 -5.14574053113761e-08 1.64090908253565e-07 0.000130491928672296
132 Pt          14.05730057           8.11599922           1.14759994 -3.93554671653347e-08 1.74417902321659e-08 6.27596500123433e-08 6.88906277018332e-05
133 Pt           1.40569997          10.55079937           1.14759994 1.22642158412366e-10 2.55555379500357e-11 -5.18387985010748e-11 3.26413887277759e-07
134 Pt            4.2171998          10.55079937           1.14759994 -6.21049644185424e-09 -1.4157680910633e-09 8.14791660335862e-09 3.13062102750059e-05
135 Pt           7.02859974          10.55079937           1.14759994 -2.42900377286572e-08 1.07348615921644e-08 9.73279965837612e-08 9.43578725923968e-05
136 Pt           9.84009933          10.55079937           1.14759994 -1.16132784666963e-08 -2.90416262728863e-09  1.8412932400236e-08 5.45844117301567e-05
137 Pt          12.65159988          10.55079937           1.14759994 2.56834056849111e-10 -4.93339125171665e-10 -5.75616558043906e-10 3.45692963486175e-06
138 Pt          15.46299934          10.55079937           1.14759994 8.63765151838128e-09 1.58372730822732e-08 2.23006281240924e-08 3.96580695666165e-05
139 Pt                    0          12.98560047           1.14759994 -3.7001251957104e-10 -3.14142374997778e-10 6.99626228493392e-10 -3.74485527186009e-06
140 Pt           2.81149983          12.98560047           1.14759994 -1.62948977388475e-10 -2.23454061696623e-09 4.61541344332049e-09 -1.00164713228193e-05
141 Pt           5.62290001          12.98560047           1.14759994 5.80962610299315e-09 3.34983438467361e-09 -7.70385119519081e-10 1.47369496437398e-05
142 Pt            8.4343996          12.98560047           1.14759994 -2.1681502039022e-08 -2.24598925750588e-08 1.12278808677735e-07 0.000101976365501885
143 Pt          11.24580002          12.98560047           1.14759994 -6.80941665703701e-09 -1.70915796829163e-08 1.89944038615249e-08 4.28640554943884e-05
144 Pt          14.05730057          12.98560047           1.14759994 3.08036571724565e-10 1.47633770329253e-10 4.34239800145348e-11 -2.23095576627668e-06
145 Pt                    0           1.62320006           3.44320011 -2.94777457865703e-05  6.1280532156933e-06  6.3863072473402e-05  0.00264215172766356
146 Pt           2.81149983           1.62320006           3.44320011 2.91714599894406e-06 -8.06003513811647e-07 7.64983053919224e-07 -0.000238951909303819
147 Pt           5.62290001           1.62320006           3.44320011 -4.88703586744899e-06 -2.03392635453394e-06 2.77288733603142e-06 -0.000455274816317239
148 Pt            8.4343996           1.62320006           3.44320011 -1.70271681212618e-06 -1.97391482525215e-06 2.17326416896562e-07 0.000243522915193851
149 Pt          11.24580002           1.62320006           3.44320011 5.75912528426953e-07 -5.69790202660368e-07 5.71370372484157e-07 0.000156828889576079
150 Pt          14.05730057           1.62320006           3.44320011 3.86841096330989e-05 -1.14622476831845e-05 5.87621972897465e-05  0.00242213127801012
151 Pt           1.40569997           4.05799961           3.44320011 -1.42550158994277e-05 5.77471151441055e-07 4.72272556691254e-05   0.0021796263290641
152 Pt            4.2171998           4.05799961           3.44320011 -1.15846830430925e-06 5.65914444996557e-06 2.99115843140458e-06 0.000508038599310294
153 Pt           7.02859974           4.05799961           3.44320011 1.85232153449898e-05 1.37384830749664e-05 6.78960623455007e-06 -0.000891040794386683
154 Pt           9.84009933           4.05799961           3.44320011 -3.26262725762977e-06 4.46043222600091e-05 7.71960897494173e-05 -0.00301391004135254
155 Pt          12.65159988           4.05799961           3.44320011 -2.06463876379865e-05 1.10633321208775e-05 1.20268274161073e-05 -0.00119623614340174
156 Pt          15.46299934           4.05799961           3.44320011 2.32552582932888e-05 -1.79618049068127e-05 3.92715908230663e-05  0.00210309279354221
157 Pt                    0           6.49280024           3.44320011 4.53073403015866e-06 -7.37195632766804e-06  1.0870399196361e-05  0.00125575459553981
158 Pt           2.81149983           6.49280024           3.44320011 -2.7360325262652e-06 4.30480812906676e-06 2.31564983924165e-05  0.00155693466893729
159 Pt           5.62290001           6.49280024           3.44320011 9.58200742100926e-06 3.85515083537551e-07 1.32171858083909e-05 -0.000874472092633841
160 Pt            8.4343996           6.49280024           3.44320011 1.77697032224304e-05 -3.32769846847866e-05 8.02796179896645e-05 -0.00298846384438072
161 Pt          11.24580002           6.49280024           3.44320011 -2.64188938556697e-05 -2.69778965803145e-05 9.31397100091509e-05 -0.00311542409680148
162 Pt          14.05730057           6.49280024           3.44320011 2.78638399413507e-06 3.68248368132962e-07 1.76973142930785e-06  0.00038972633741495
163 Pt           1.40569997           8.92759991           3.44320011 6.43344167883006e-08 -7.7411809263914e-07  7.1406287362759e-08 5.45041317075251e-05
164 Pt            4.2171998           8.92759991           3.44320011 2.87095700881796e-07 -1.18921542115234e-06 -5.6182608228542e-09  0.00011548636520841
165 Pt           7.02859974           8.92759991           3.44320011 4.49731254345276e-05 1.13384694907893e-05 5.24296900150355e-05  -0.0022185395378494
166 Pt           9.84009933           8.92759991           3.44320011  1.0247908077615e-05 4.43742161506381e-05 0.000220512967802778 -0.00478181182629622
167 Pt          12.65159988           8.92759991           3.44320011 -5.52044267153458e-05 2.93789686331072e-05  7.6801248486527e-05 -0.00277594061707674
168 Pt          15.46299934           8.92759991           3.44320011 -5.52755465916101e-07 -2.83038132541175e-06  1.7141581528244e-06 0.000360127971473135
169 Pt                    0          11.36240005           3.44320011 4.00166612506127e-05 1.09883500254399e-05 2.43501909000919e-05 -0.00163391416202744
170 Pt           2.81149983          11.36240005           3.44320011 -1.58618269902998e-06  5.7345437310675e-05 0.000100677479699413  -0.0034723334442739
171 Pt           5.62290001          11.36240005           3.44320011 -2.54630038673426e-05 1.75155969401847e-05 1.87757457285524e-05  -0.0015202041324686
172 Pt            8.4343996          11.36240005           3.44320011 8.07883890526887e-07 -3.75122844650273e-05  5.9107024877896e-05 -0.00242136128713025
173 Pt          11.24580002          11.36240005           3.44320011 -4.27116057242569e-07 -4.39992581359665e-05 3.01284580524798e-05  -0.0019368027761433
174 Pt          14.05730057          11.36240005           3.44320011 1.28740204818419e-07 8.71221771769889e-08 1.31667877214679e-08 1.78766981524889e-05
175 Pt           1.40569997          13.79719925           3.44320011 1.72897509944406e-05 -4.2555451530172e-05 3.24567392649369e-05 -0.00177027816703389
176 Pt            4.2171998          13.79719925           3.44320011 1.46193701907248e-06 -3.46715228228254e-05 2.85364473393309e-05  -0.0019408909328997
177 Pt           7.02859974          13.79719925           3.44320011 -7.09470530374655e-06 -7.64670491694991e-06 2.08822933201375e-05 -0.00121683161389797
178 Pt           9.84009933          13.79719925           3.44320011 1.05017504198795e-07 -1.61805207858885e-06 7.57964724722389e-07 -0.000183004960251909
179 Pt          12.65159988          13.79719925           3.44320011 3.16667096328667e-06 2.67400353152357e-06 7.53195552567957e-07 0.000413511487397473
180 Pt          15.46299934          13.79719925           3.44320011 -3.27808931262952e-06  1.8411626717341e-05 2.32203167707587e-05   0.0016085675882298
181 Pt                    0                    0           5.73869991 0.000362791087358084  0.00495806634784616   0.0229923437936853  -0.0445178743393899
182 Pt           2.81149983                    0           5.73869991   0.0019126543611628 -0.00139851601586147  0.00103491314373804  0.00992562011973043
183 Pt           5.62290001                    0           5.73869991 -0.00308881747167506 -0.000810213084677878  0.00420957773061293   0.0181111529799975
184 Pt            8.4343996                    0           5.73869991 -0.00222507586745029 -0.00539207242794884   0.0101102359962829  -0.0313709608371124
185 Pt          11.24580002                    0           5.73869991 0.000884172007508171 -0.000878442742715161 0.000722381324928232  -0.0093678002543438
186 Pt          14.05730057                    0           5.73869991 -0.000484080874772154 -0.00223613939094201   0.0296819935057303  -0.0498554163363203
187 Pt           1.40569997           2.43479991           5.73869991 -0.00633302314451676 -0.000551751727431189   0.0146569200551026  -0.0361479813868408
188 Pt            4.2171998           2.43479991           5.73869991 0.000154446203918429 -0.000582919329636641   0.0169047186012081   0.0349517727251904
189 Pt           7.02859974           2.43479991           5.73869991  0.00179733063734357   -0.002173223536817  0.00580400634777434  -0.0187254080935328
190 Pt           9.84009933           2.43479991           5.73869991   0.0023207941032122  0.00425388847028064  0.00556287631986685   0.0227652838226336
191 Pt          12.65159988           2.43479991           5.73869991 0.000724237145488655 -0.000341837266432753 0.000154563433744406 -0.00382738482608815
192 Pt          15.46299934           2.43479991           5.73869991  0.00247257679503941   0.0116391090722828   0.0629657476991249  -0.0704593331039018