4
Lattice="3.869480948124555 0.0 0.0 0.0 4.174662578524906 0.0 0.0 0.0 3.991304353061441" Properties=species:S:1:pos:R:3:energies:R:1:forces:R:3 energy=-0.0061065218556413114 free_energy=-0.0061065218556413114 stress="-0.0012902337600555372 5.024069660264194e-19 -8.967478691715058e-18 5.024069660264194e-19 0.008675688425953787 -1.7335406164032235e-19 -8.967478691715058e-18 -1.7335406164032235e-19 0.0006426263782962371" pbc="T T T"
Al       0.00000000       0.00000000       0.00000000      -0.00152663       0.00000000       0.00000000       0.00000000
Al       0.00000000       2.08733129       1.99565218      -0.00152663       0.00000000       0.00000000       0.00000000
Al       1.93474047       0.00000000       1.99565218      -0.00152663      -0.00000000       0.00000000       0.00000000
Al       1.93474047       2.08733129       0.00000000      -0.00152663       0.00000000      -0.00000000       0.00000000
