ITEM: TIMESTEP
0
ITEM: NUMBER OF ATOMS
216
ITEM: BOX BOUNDS pp pp ff
0.0000000000000000e+00 1.6869000000000000e+01
0.0000000000000000e+00 1.4609000000000000e+01
0.0000000000000000e+00 4.1478000000000002e+01
ITEM: ATOMS id element xu yu zu fx fy fz q
1 Pt              1.40573             0.811598               35.739 -1.50064907982485e-05   3.536785485855e-06 -0.00854485387632869   0.0271558103808361
2 Pt              4.21718             0.811598               35.739 1.47752602019119e-05 3.53671130141214e-06 -0.00854459751170989   0.0271550714022775
3 Pt              7.02864             0.811598               35.739 -1.47487164287116e-05 3.53695246409192e-06 -0.00854461573112182   0.0271551391383743
4 Pt               9.8401             0.811598               35.739 1.47769315462893e-05 3.53659280593135e-06 -0.00854462412279975   0.0271551582090829
5 Pt              12.6516             0.811598               35.739 -1.48537645288139e-05 3.53682371155591e-06 -0.00854464545340503   0.0271551917936358
6 Pt               15.463             0.811598               35.739 1.50862532952132e-05 3.53521409922314e-06 -0.00854499883491136   0.0271562164878233
7 Pt                    0              3.24639               35.739 -2.49054120786429e-07 -9.46512480974149e-06 -0.00851639138653941   0.0270678653217667
8 Pt              2.81146              3.24639               35.739 -1.31659594314502e-08 -1.11667038202036e-05 -0.00853454375245932   0.0271285108161412
9 Pt              5.62291              3.24639               35.739  5.9997823581678e-09 -9.4657483447616e-06 -0.00851594165081302   0.0270665824088843
10 Pt              8.43437              3.24639               35.739 -1.47587772301376e-08 -1.11663845984105e-05  -0.0085345240300769   0.0271284801547427
11 Pt              11.2458              3.24639               35.739 5.29653909863766e-08 -9.46543110113652e-06 -0.00851598952735071     0.02706671200346
12 Pt              14.0573              3.24639               35.739 1.88652934095194e-07 -1.11695073684945e-05 -0.00853476218290089    0.027129160782721
13 Pt              1.40573              5.68118               35.739 -1.62684100764372e-05 6.50340643723848e-06  -0.0085150082219576   0.0270649623684494
14 Pt              4.21718              5.68118               35.739 1.60374580606563e-05 6.50280064659281e-06  -0.0085147501476224   0.0270642172358516
15 Pt              7.02864              5.68118               35.739 -1.60098291401339e-05 6.50321829760022e-06 -0.00851476929000417   0.0270642879056123
16 Pt               9.8401              5.68118               35.739 1.60381513981231e-05 6.50271560398053e-06 -0.00851477713330442   0.0270643051818587
17 Pt              12.6516              5.68118               35.739 -1.61165189498629e-05 6.50309035165731e-06 -0.00851479905293819   0.0270643403093905
18 Pt               15.463              5.68118               35.739 1.63485107659769e-05 6.50099703451321e-06 -0.00851514980479275   0.0270653567297046
19 Pt                    0              8.11598               35.739 -2.48891516028754e-07 3.26470806726252e-06 -0.00853653138206476   0.0271281379532721
20 Pt              2.81146              8.11598               35.739 -1.36731006021979e-08 4.39535362753842e-06 -0.00855300019070484   0.0271830298797394
21 Pt              5.62291              8.11598               35.739  5.8842814089296e-09 3.26604871596857e-06 -0.00853608005399889   0.0271268498091491
22 Pt              8.43437              8.11598               35.739 -1.50985020750353e-08 4.39527849333864e-06 -0.00855298066766871    0.027182999971839
23 Pt              11.2458              8.11598               35.739 5.40317690009027e-08 3.26587618753511e-06 -0.00853612847894742   0.0271269810738659
24 Pt              14.0573              8.11598               35.739 1.88291162848898e-07 4.39591567488389e-06 -0.00855321749064426   0.0271836758453893
25 Pt              1.40573              10.5508               35.739 -1.58283200877284e-05 -1.03721466444154e-05 -0.00852535337955181   0.0270978394280963
26 Pt              4.21718              10.5508               35.739 1.55972905984553e-05 -1.03696697348319e-05 -0.00852509590585525   0.0270970967349921
27 Pt              7.02864              10.5508               35.739 -1.5570016209316e-05 -1.03702506632736e-05 -0.00852511473650434   0.0270971664361645
28 Pt               9.8401              10.5508               35.739 1.55982992217299e-05 -1.03700317991909e-05 -0.00852512275275096     0.02709718416923
29 Pt              12.6516              10.5508               35.739 -1.5676105862547e-05 -1.03701919187708e-05 -0.00852514448436573   0.0270972192209703
30 Pt               15.463              10.5508               35.739 1.59082438256136e-05 -1.03694938189294e-05 -0.00852549611421294   0.0270982379329094
31 Pt                    0              12.9856               35.739 -2.4925013166041e-07 5.88008066630609e-06 -0.00850599361171043   0.0270347334174542
32 Pt              2.81146              12.9856               35.739 -1.28588095757769e-08 7.63511782526443e-06 -0.00852499528211153   0.0270980293072344
33 Pt              5.62291              12.9856               35.739  6.0343180146961e-09 5.88177137927754e-06 -0.00850554469485652    0.027033452676455
34 Pt              8.43437              12.9856               35.739 -1.45880735878151e-08  7.6349387654328e-06 -0.00852497544811747   0.0270979984348661
35 Pt              11.2458              12.9856               35.739 5.24665753271771e-08 5.88150475285175e-06 -0.00850559227899107   0.0270335814971389
36 Pt              14.0573              12.9856               35.739 1.88861562348608e-07 7.63633512682203e-06 -0.00852521433883498   0.0270986821882235
37 Pt                    0              1.62319              38.0345 1.36867136596658e-09 3.81257732073905e-07 -2.97288270673854e-05 -0.00179725103152054
38 Pt              2.81146              1.62319              38.0345 2.37413258639492e-10 -2.76005322979246e-07 -3.05885856908319e-05 -0.00182500398306393
39 Pt              5.62291              1.62319              38.0345 5.35033419733167e-11 3.78841100788588e-07 -2.97428583804502e-05 -0.00179755827983949
40 Pt              8.43437              1.62319              38.0345 1.69981217363646e-11 -2.75780512268843e-07 -3.05877744159383e-05 -0.00182498096929396
41 Pt              11.2458              1.62319              38.0345 -5.80637051848765e-10 3.79275009966415e-07 -2.97409876849622e-05 -0.00179751845716169
42 Pt              14.0573              1.62319              38.0345 -2.18264191848503e-10 -2.77512271700187e-07 -3.05887550198904e-05 -0.00182501458565142
43 Pt              1.40573              4.05799              38.0345 -1.70266615190067e-07 2.27207837971018e-07 -3.12084710501739e-05  -0.0018471100075199
44 Pt              4.21718              4.05799              38.0345   1.703989713527e-07 2.28011369452802e-07  -3.121032371792e-05 -0.00184713905379225
45 Pt              7.02864              4.05799              38.0345 -1.70507132688024e-07 2.27912813197932e-07 -3.12099405688469e-05 -0.00184713199930903
46 Pt               9.8401              4.05799              38.0345 1.70703742769077e-07 2.27712295410811e-07 -3.12106464457118e-05 -0.00184714455476885
47 Pt              12.6516              4.05799              38.0345 -1.70225023846638e-07 2.28288827463092e-07 -3.12089155694583e-05 -0.00184711422774548
48 Pt               15.463              4.05799              38.0345 1.68970815848253e-07 2.30210099135912e-07 -3.11974025934588e-05 -0.00184686240422737
49 Pt                    0              6.49278              38.0345 1.41485727117643e-09 4.15013315500541e-08 -3.05011428727468e-05 -0.00182621494647344
50 Pt              2.81146              6.49278              38.0345 2.25316685072517e-10 -5.38729908168751e-07 -3.12982067960068e-05  -0.0018516682844833
51 Pt              5.62291              6.49278              38.0345 5.62240971813682e-11 3.90899803512745e-08 -3.05153046800524e-05 -0.00182652093336485
52 Pt              8.43437              6.49278              38.0345 7.29265503860151e-12 -5.38505412478388e-07 -3.12973793895106e-05  -0.0018516451701717
53 Pt              11.2458              6.49278              38.0345 -5.68562498688524e-10 3.95164247965293e-08 -3.05134231376775e-05  -0.0018264814464506
54 Pt              14.0573              6.49278              38.0345 -2.44616732990625e-10 -5.40149070320643e-07 -3.12982509880062e-05  -0.0018516757892622
55 Pt              1.40573              8.92757              38.0345 -1.4696782093737e-07 5.11106106131044e-08 -3.01677986713202e-05 -0.00181136078940857
56 Pt              4.21718              8.92757              38.0345 1.47125067170553e-07 5.19574860045644e-08 -3.01696838585937e-05 -0.00181139214886871
57 Pt              7.02864              8.92757              38.0345 -1.47251004794284e-07 5.18351091736218e-08 -3.0169284650113e-05  -0.0018113843621925
58 Pt               9.8401              8.92757              38.0345 1.47436798293912e-07 5.16592972865118e-08 -3.01699952462869e-05 -0.00181139734770951
59 Pt              12.6516              8.92757              38.0345 -1.46932070769361e-07 5.22201144087369e-08 -3.01682692607069e-05 -0.00181136633054175
60 Pt               15.463              8.92757              38.0345 1.45684797381659e-07 5.42265090335948e-08 -3.01570471485094e-05 -0.00181111720628833
61 Pt                    0              11.3624              38.0345 1.35653590870042e-09 5.13438400639783e-07 -3.07176318952517e-05 -0.00183167274061488
62 Pt              2.81146              11.3624              38.0345 2.55487369545405e-10 -5.72148923836113e-08 -3.16772085906618e-05 -0.00186195996001703
63 Pt              5.62291              11.3624              38.0345 5.98422676490764e-11 5.11087447862209e-07 -3.07319831434322e-05 -0.00183198234980313
64 Pt              8.43437              11.3624              38.0345  2.1502884919308e-11 -5.69957216735292e-08 -3.16763624515166e-05 -0.00186193627626548
65 Pt              11.2458              11.3624              38.0345 -6.06417917612475e-10 5.11509040854742e-07 -3.07300634674197e-05 -0.00183194186094628
66 Pt              14.0573              11.3624              38.0345 -1.90223349886459e-10 -5.86548290440505e-08 -3.16774600132747e-05 -0.00186197313816368
67 Pt              1.40573              13.7972              38.0345 -1.2041355525677e-07 -2.51578284986658e-07 -3.08981319560767e-05 -0.00183895194398938
68 Pt              4.21718              13.7972              38.0345 1.20585253781999e-07 -2.50796365356657e-07 -3.09001223953043e-05 -0.00183898552553659
69 Pt              7.02864              13.7972              38.0345 -1.20727145820719e-07 -2.50892383781419e-07 -3.08996946295975e-05 -0.00183897699129248
70 Pt               9.8401              13.7972              38.0345 1.20911784533228e-07 -2.51088925391625e-07 -3.09004232645243e-05 -0.00183899039323855
71 Pt              12.6516              13.7972              38.0345 -1.20370768228728e-07 -2.50518994899111e-07 -3.0898709989344e-05 -0.00183895989407995
72 Pt               15.463              13.7972              38.0345 1.19103101621731e-07 -2.48544230978483e-07 -3.08874016179018e-05 -0.00183871223593184
73 Pt                    0                    0              40.3301 1.76230487923497e-11 4.14727414965326e-09 -3.39995805361652e-07 0.000167230276713129
74 Pt              2.81146                    0              40.3301 4.44755101395734e-12 -8.17139047431219e-10 -3.46355014619527e-07 0.000169478098209273
75 Pt              5.62291                    0              40.3301 -4.76486075165411e-13 4.14018637218809e-09 -3.40155968647746e-07 0.000167265999300433
76 Pt              8.43437                    0              40.3301 3.15777648485744e-13 -8.17643782614559e-10 -3.46361309171866e-07 0.000169478465295671
77 Pt              11.2458                    0              40.3301 -3.69228405963742e-12 4.14069226380871e-09 -3.40137833013796e-07  0.00016726229902431
78 Pt              14.0573                    0              40.3301 -1.32098214181286e-11 -8.20331352778605e-10 -3.46314978055957e-07 0.000169469508141083
79 Pt              1.40573              2.43479              40.3301 7.39510408782913e-10 8.15860448371072e-10 -3.49967771973704e-07 0.000170729784649897
80 Pt              4.21718              2.43479              40.3301 -7.23643638452076e-10 8.14851116849829e-10 -3.50036755372623e-07 0.000170744462704204
81 Pt              7.02864              2.43479              40.3301 7.21952696689679e-10  8.1419342696585e-10 -3.50032805873093e-07 0.000170743243846037
82 Pt               9.8401              2.43479              40.3301 -7.22853378515593e-10 8.15453015997764e-10 -3.50030895907503e-07 0.000170742666524913
83 Pt              12.6516              2.43479              40.3301 7.25385970051025e-10 8.16410330547031e-10 -3.50014818077265e-07 0.000170740378419988
84 Pt               15.463              2.43479              40.3301 -7.45287610656487e-10 8.24065941612705e-10 -3.4988446894825e-07 0.000170710764869635
85 Pt                    0              4.86959              40.3301 1.85218283332833e-11 1.65066898619282e-10 -3.37726545874412e-07 0.000167107431641153
86 Pt              2.81146              4.86959              40.3301 4.10144600220928e-12 -4.54257035533604e-09 -3.42757514554242e-07 0.000168983198632145
87 Pt              5.62291              4.86959              40.3301 -3.47033535457734e-13 1.56882471269695e-10 -3.37886988545294e-07 0.000167143376374175
88 Pt              8.43437              4.86959              40.3301    1.49840510521e-13 -4.54302817791903e-09 -3.42763271571243e-07 0.000168983444136752
89 Pt              11.2458              4.86959              40.3301 -3.5906891209486e-12 1.57509641013472e-10 -3.37868603313658e-07 0.000167139607833396
90 Pt              14.0573              4.86959              40.3301 -1.37726861611093e-11 -4.54472115207044e-09 -3.42714457880362e-07 0.000168973739432378
91 Pt              1.40573              7.30438              40.3301  5.1947463834522e-10 1.70931250646103e-09 -3.4332201277475e-07  0.00016839498660531
92 Pt              4.21718              7.30438              40.3301 -5.04101479651508e-10 1.70885069598735e-09 -3.43390126739524e-07 0.000168409488835837
93 Pt              7.02864              7.30438              40.3301 5.02466577964319e-10 1.70795113994595e-09 -3.43385985139832e-07 0.000168408242451959
94 Pt               9.8401              7.30438              40.3301 -5.03318951114265e-10 1.70947963921528e-09 -3.43384377271775e-07 0.000168407711855512
95 Pt              12.6516              7.30438              40.3301 5.05842363463511e-10 1.71038140626632e-09 -3.43368093552873e-07 0.000168405345353246
96 Pt               15.463              7.30438              40.3301 -5.25315455229151e-10 1.71871854011439e-09 -3.43240222758379e-07 0.000168376053480838
97 Pt                    0              9.73917              40.3301  1.8018611106994e-11 2.78922636651356e-09 -3.46359195620809e-07   0.0001695477754644
98 Pt              2.81146              9.73917              40.3301 4.57502573203816e-12 -1.25792866304899e-09 -3.53518772454066e-07 0.000171883630376695
99 Pt              5.62291              9.73917              40.3301 -4.43184993496533e-13 2.78248099393619e-09 -3.46522420473028e-07 0.000169583931188953
100 Pt              8.43437              9.73917              40.3301  2.2463172400898e-13 -1.25844247210572e-09 -3.53525150203357e-07 0.000171884010040056
101 Pt              11.2458              9.73917              40.3301 -3.59316070480954e-12 2.78296319385988e-09 -3.46503828889763e-07 0.000169580156812013
102 Pt              14.0573              9.73917              40.3301 -1.37485040289446e-11 -1.26026098605778e-09 -3.53478226007252e-07  0.00017187489182599
103 Pt              1.40573               12.174              40.3301 1.13060783510207e-09 -2.16054189571618e-09 -3.40228721446918e-07 0.000168052312865853
104 Pt              4.21718               12.174              40.3301 -1.11482901456502e-09 -2.16196704955132e-09 -3.40298410440843e-07 0.000168067369314003
105 Pt              7.02864               12.174              40.3301 1.11309216124723e-09 -2.16272270576093e-09 -3.40293894889648e-07  0.00016806600843168
106 Pt               9.8401               12.174              40.3301 -1.11402251147686e-09 -2.16119827897343e-09 -3.40292538404856e-07 0.000168065539231358
107 Pt              12.6516               12.174              40.3301 1.11717439340417e-09 -2.16049966558657e-09 -3.40277600803536e-07 0.000168063496408469
108 Pt               15.463               12.174              40.3301 -1.13693789019975e-09 -2.15132990598797e-09 -3.40149897268988e-07 0.000168034081618473
109 Pt              1.40573             0.811598               1.1476 7.28233814460149e-10 8.63810200361215e-10 3.41059848707892e-07 -7.88049497846057e-05
110 Pt              4.21718             0.811598               1.1476 -7.19935307353602e-10 8.64611957177532e-10 3.41144881338767e-07 -7.88204997913198e-05
111 Pt              7.02864             0.811598               1.1476 7.19055329712293e-10 8.64964599304354e-10 3.41138046680376e-07 -7.88191746453556e-05
112 Pt               9.8401             0.811598               1.1476 -7.19734309901156e-10 8.64199152140624e-10 3.41135166326254e-07 -7.88185891870744e-05
113 Pt              12.6516             0.811598               1.1476 7.21570040487931e-10 8.64127595682486e-10  3.4112353679189e-07 -7.88167029786541e-05
114 Pt               15.463             0.811598               1.1476 -7.31178970621521e-10 8.60412336070194e-10 3.40972859009503e-07 -7.87895756407733e-05
115 Pt                    0              3.24639               1.1476 9.13450037330086e-12 -1.81355379149653e-09 3.44479419441108e-07 -7.96210596277897e-05
116 Pt              2.81146              3.24639               1.1476  1.9408676222481e-12 3.25378839250289e-10 3.53138255570514e-07 -8.12369429134824e-05
117 Pt              5.62291              3.24639               1.1476 -3.08690600553586e-13 -1.81144365683936e-09 3.44665337548003e-07 -7.96542745470372e-05
118 Pt              8.43437              3.24639               1.1476 2.17419665966376e-13 3.25623649784303e-10 3.53143288026949e-07 -8.12377872946103e-05
119 Pt              11.2458              3.24639               1.1476 -1.73746800903913e-12 -1.81155220761589e-09 3.44645865456263e-07 -7.96508995027592e-05
120 Pt              14.0573              3.24639               1.1476 -7.15218551949716e-12 3.26456524034417e-10 3.53085556863124e-07 -8.12273703949529e-05
121 Pt              1.40573              5.68118               1.1476 5.86048802193707e-10 -2.58968122329813e-10 3.35903673368246e-07 -7.77137357670389e-05
122 Pt              4.21718              5.68118               1.1476 -5.77999138689443e-10 -2.58652423921467e-10 3.35987096975788e-07 -7.7729025202064e-05
123 Pt              7.02864              5.68118               1.1476 5.77130068379313e-10 -2.58185231262051e-10 3.35980271094775e-07 -7.77276968119582e-05
124 Pt               9.8401              5.68118               1.1476 -5.77785356880273e-10 -2.59032924153466e-10 3.35977508057442e-07 -7.77271334084253e-05
125 Pt              12.6516              5.68118               1.1476 5.79540699364847e-10 -2.59100356235554e-10 3.35965076490459e-07 -7.77250850422619e-05
126 Pt               15.463              5.68118               1.1476 -5.88941300799982e-10 -2.62666225886691e-10 3.35816598761672e-07 -7.7698302932936e-05
127 Pt                    0              8.11598               1.1476 9.37337841844442e-12  -1.599439430103e-10 3.37827845149253e-07 -7.82068496540351e-05
128 Pt              2.81146              8.11598               1.1476  1.7350185054182e-12 1.89886673743772e-09 3.44481375640116e-07 -7.94349471884321e-05
129 Pt              5.62291              8.11598               1.1476 -2.4658846894643e-13 -1.57022209946184e-10 3.38013472430078e-07 -7.82401854732141e-05
130 Pt              8.43437              8.11598               1.1476 1.52010081253272e-13 1.89910725727172e-09 3.44485659531556e-07 -7.94356611642323e-05
131 Pt              11.2458              8.11598               1.1476 -1.70387717635382e-12 -1.57205946652794e-10 3.37993791716051e-07 -7.8236753758549e-05
132 Pt              14.0573              8.11598               1.1476 -7.21962110366146e-12  1.8993760030448e-09 3.44424875713267e-07 -7.94245657547272e-05
133 Pt              1.40573              10.5508               1.1476 4.89795335484163e-10 -7.66626337522626e-10 3.48807719341119e-07 -8.04305850052761e-05
134 Pt              4.21718              10.5508               1.1476 -4.8146245762693e-10 -7.66421703113345e-10 3.48890821805955e-07 -8.04456513561214e-05
135 Pt              7.02864              10.5508               1.1476 4.80602807584281e-10 -7.65997208578742e-10 3.48884549446884e-07 -8.04444435053426e-05
136 Pt               9.8401              10.5508               1.1476 -4.81270054891687e-10 -7.66746054695405e-10 3.48881231495193e-07 -8.04437795560839e-05
137 Pt              12.6516              10.5508               1.1476 4.82836837633783e-10 -7.66889199382238e-10 3.48867939198926e-07 -8.04415956849775e-05
138 Pt               15.463              10.5508               1.1476 -4.92553517864659e-10 -7.69956123785524e-10 3.48716644751575e-07 -8.04145193652145e-05
139 Pt                    0              12.9856               1.1476 9.08425824356767e-12 -1.43962686767597e-09 3.32461616537735e-07 -7.70768326602574e-05
140 Pt              2.81146              12.9856               1.1476  1.7222858873119e-12 9.48119128247597e-10 3.39105830830756e-07 -7.8304828513504e-05
141 Pt              5.62291              12.9856               1.1476 -2.79460546313427e-13 -1.43709278166312e-09 3.32644269040772e-07 -7.71097051155352e-05
142 Pt              8.43437              12.9856               1.1476 1.94998362805427e-13 9.48353552578334e-10 3.39110291200429e-07 -7.83055800681125e-05
143 Pt              11.2458              12.9856               1.1476 -1.69907072290541e-12 -1.43723802692426e-09 3.32625139637739e-07 -7.71063714516638e-05
144 Pt              14.0573              12.9856               1.1476 -6.9390506532038e-12  9.4915521911035e-10 3.39051271935358e-07 -7.82947832662426e-05
145 Pt                    0              1.62319               3.4432 1.22310133092024e-09 -4.61547193307649e-07 3.05290619076129e-05  0.00152027655382934
146 Pt              2.81146              1.62319               3.4432 2.01772947445961e-10 6.92022287115346e-09  3.1502597781598e-05   0.0015485448177644
147 Pt              5.62291              1.62319               3.4432 4.28541383444931e-11 -4.59621889195821e-07 3.05429462178377e-05  0.00152058360651637
148 Pt              8.43437              1.62319               3.4432 2.51048825664447e-11 6.73958145147172e-09 3.15017594363834e-05  0.00154852317785057
149 Pt              11.2458              1.62319               3.4432 -5.21953954581319e-10 -4.5996841688059e-07 3.05410987966776e-05  0.00152054341715005
150 Pt              14.0573              1.62319               3.4432 -2.20850769442555e-10 8.10587203154726e-09 3.15028085749347e-05  0.00154855413547564
151 Pt              1.40573              4.05799               3.4432 -9.13564035482906e-08 1.02512207275916e-07 3.03455670498093e-05  0.00151440388490776
152 Pt              4.21718              4.05799               3.4432 9.15807398081377e-08  1.0185251149157e-07 3.03474791610606e-05  0.00151444083342964
153 Pt              7.02864              4.05799               3.4432 -9.16984258281667e-08 1.01939411073834e-07 3.03470738616478e-05  0.00151443253281332
154 Pt               9.8401              4.05799               3.4432  9.1834516528562e-08 1.02095436377697e-07 3.03477481374926e-05  0.00151444554151422
155 Pt              12.6516              4.05799               3.4432 -9.13515517501747e-08 1.01628754836223e-07 3.03461440108001e-05  0.00151441412805245
156 Pt               15.463              4.05799               3.4432 9.02327313704889e-08 9.99890347652265e-08 3.03352401651138e-05  0.00151416913047897
157 Pt                    0              6.49278               3.4432 1.26934504481859e-09 -1.13272737745863e-07   3.100667460028e-05  0.00153723485979677
158 Pt              2.81146              6.49278               3.4432 1.86045449462668e-10 3.13527925289417e-07 3.18707498132476e-05   0.0015622428200569
159 Pt              5.62291              6.49278               3.4432 4.36778630184817e-11 -1.1131938081477e-07 3.10205745991135e-05  0.00153753981940411
160 Pt              8.43437              6.49278               3.4432 1.54573661669374e-11 3.13345015213567e-07 3.18699073844059e-05  0.00156222129488618
161 Pt              11.2458              6.49278               3.4432 -5.06140994834242e-10 -1.11665080853098e-07 3.10187335085056e-05  0.00153750019763657
162 Pt              14.0573              6.49278               3.4432 -2.52870525361066e-10  3.1465497142111e-07 3.18707896544566e-05  0.00156224795256679
163 Pt              1.40573              8.92757               3.4432 -1.26747472492398e-07 -2.26083835448938e-07 3.10253185216242e-05  0.00153464962750619
164 Pt              4.21718              8.92757               3.4432 1.26943187729875e-07 -2.26747003493505e-07 3.10271166794787e-05   0.0015346825893421
165 Pt              7.02864              8.92757               3.4432 -1.2703715997315e-07 -2.26665407690605e-07 3.10267505183071e-05  0.00153467556881515
166 Pt               9.8401              8.92757               3.4432 1.27183823665322e-07 -2.26499385297409e-07 3.10274066708015e-05  0.00153468785652461
167 Pt              12.6516              8.92757               3.4432 -1.26741746071259e-07 -2.26974776087599e-07 3.10257876939843e-05  0.00153465676470653
168 Pt               15.463              8.92757               3.4432 1.25623650602362e-07 -2.28554465866816e-07 3.10146143428557e-05  0.00153440794649969
169 Pt                    0              11.3624               3.4432 1.25567685190004e-09 -1.4895502814896e-07 2.99239661141758e-05  0.00150200216389566
170 Pt              2.81146              11.3624               3.4432 1.78529798848558e-10 3.50612652604573e-07 3.07386394607236e-05  0.00152605407648115
171 Pt              5.62291              11.3624               3.4432 3.90865309734707e-11 -1.46970641489634e-07 2.99375778836035e-05   0.0015023059089426
172 Pt              8.43437              11.3624               3.4432 1.56848999599742e-11 3.50427582918186e-07 3.07378297401425e-05  0.00152603306019247
173 Pt              11.2458              11.3624               3.4432 -4.91144089582246e-10 -1.47323608406218e-07 2.99357801984148e-05  0.00150226664209887
174 Pt              14.0573              11.3624               3.4432 -2.5881192072954e-10 3.51802095774123e-07 3.07386670013337e-05  0.00152605851405103
175 Pt              1.40573              13.7972               3.4432 -9.65410900932656e-08 1.03163792642951e-07 3.14373341384455e-05  0.00154975143847677
176 Pt              4.21718              13.7972               3.4432 9.67579788278395e-08 1.02547570662052e-07  3.1439262725017e-05  0.00154978758074611
177 Pt              7.02864              13.7972               3.4432 -9.68706479615651e-08 1.02612505359462e-07 3.14388583095366e-05  0.00154977952870291
178 Pt               9.8401              13.7972               3.4432 9.70131536927194e-08 1.02790280924159e-07 3.14395359166426e-05   0.0015497923823776
179 Pt              12.6516              13.7972               3.4432 -9.65315198159747e-08 1.02310867901933e-07 3.14379340481971e-05  0.00154976165209804
180 Pt               15.463              13.7972               3.4432  9.5396280163338e-08 1.00723907995555e-07 3.14267828201691e-05  0.00154951527054853
181 Pt                    0                    0               5.7387 -2.47688793355346e-07 -1.30878208211326e-09  0.00850115290636332  -0.0268122836626387
182 Pt              2.81146                    0               5.7387 -1.22920703626751e-08 -2.80135676610768e-07  0.00852113969023418  -0.0268781230449709
183 Pt              5.62291                    0               5.7387 5.98584654768986e-09 -1.73500961687945e-09  0.00850070174981529  -0.0268109999964696
184 Pt              8.43437                    0               5.7387 -1.41419437474667e-08 -2.80169777371812e-07   0.0085211209128715  -0.0268780953956573
185 Pt              11.2458                    0               5.7387 5.10005206651909e-08 -1.71137176012501e-09  0.00850074910853846  -0.0268111279552835
186 Pt              14.0573                    0               5.7387 1.88010627246142e-07 -2.79587708447269e-07  0.00852136119074418  -0.0268787789890445
187 Pt              1.40573              2.43479               5.7387 -1.57144050746054e-05 9.20970957108825e-06  0.00853688607739922  -0.0269235431316981
188 Pt              4.21718              2.43479               5.7387 1.54851496952953e-05 9.20734268224519e-06  0.00853662772248388  -0.0269228020590735
189 Pt              7.02864              2.43479               5.7387 -1.54577226110214e-05 9.20788761242721e-06   0.0085366469906966  -0.0269228725743655
190 Pt               9.8401              2.43479               5.7387  1.5485689690547e-05 9.20770285763039e-06  0.00853665503896918  -0.0269228901782486
191 Pt              12.6516              2.43479               5.7387 -1.55631349296602e-05 9.20779551652633e-06  0.00853667543495631  -0.0269229219150291
192 Pt               15.463              2.43479               5.7387 1.57936471726848e-05 9.20693502050331e-06  0.00853703074306078   -0.026923948724239