
     Program PWSCF v.7.0 starts on 13Nov2023 at 17:42:39

     This program is part of the open-source Quantum ESPRESSO suite
     for quantum simulation of materials; please cite
         "P. Giannozzi et al., J. Phys.:Condens. Matter 21 395502 (2009);
         "P. Giannozzi et al., J. Phys.:Condens. Matter 29 465901 (2017);
         "P. Giannozzi et al., J. Chem. Phys. 152 154105 (2020);
          URL http://www.quantum-espresso.org",
     in publications or presentations arising from this work. More details at
     http://www.quantum-espresso.org/quote

     Parallel version (MPI & OpenMP), running on       1 processor cores
     Number of MPI processes:                 1
     Threads/MPI process:                     1

     MPI processes distributed on     1 nodes
     111 MiB available memory on the printing compute node when the environment starts

     Reading input from pw_scf.in
Warning: card &CELL ignored
Warning: card / ignored

     Current dimensions of program PWSCF are:
     Max number of different atomic species (ntypx) = 10
     Max number of k-points (npk) =  40000
     Max angular momentum in pseudopotentials (lmaxx) =  4
     Message from routine setup:
     using ibrav=0 with symmetry is DISCOURAGED, use correct ibrav instead

     Subspace diagonalization in iterative solution of the eigenvalue problem:
     a serial algorithm will be used


     G-vector sticks info
     --------------------
     sticks:   dense  smooth     PW     G-vecs:    dense   smooth      PW
     Sum         745     583    187                13323     9409    1639

     Using Slab Decomposition



     bravais-lattice index     =            0
     lattice parameter (alat)  =       7.3076  a.u.
     unit-cell volume          =     275.9333 (a.u.)^3
     number of atoms/cell      =            2
     number of atomic types    =            1
     number of electrons       =         8.00
     number of Kohn-Sham states=            8
     kinetic-energy cutoff     =      40.0000  Ry
     charge density cutoff     =     200.0000  Ry
     scf convergence threshold =      1.0E-06
     mixing beta               =       0.3000
     number of iterations used =            8  plain     mixing
     Exchange-correlation= SLA  PW   PBE  PBE
                           (   1   4   3   4   0   0   0)

     celldm(1)=   7.307571  celldm(2)=   0.000000  celldm(3)=   0.000000
     celldm(4)=   0.000000  celldm(5)=   0.000000  celldm(6)=   0.000000

     crystal axes: (cart. coord. in units of alat)
               a(1) = (   0.866025   0.000000   0.500000 )
               a(2) = (   0.288675   0.816497   0.500000 )
               a(3) = (   0.000000   0.000000   1.000000 )

     reciprocal axes: (cart. coord. in units 2 pi/alat)
               b(1) = (  1.154701 -0.408249  0.000000 )
               b(2) = (  0.000000  1.224745  0.000000 )
               b(3) = ( -0.577350 -0.408248  1.000000 )


     PseudoPot. # 1 for Si read from file:
     /home/demo/data/demo-default/new-job-nov-13-2023-10-32-am-clone-clone-zCQB8dh37BYnp5FR8/pseudo/si_pbe_gbrv_1.0.upf
     MD5 check sum: a056efeee980c13900f22a371efd63c1
     Pseudo is Ultrasoft + core correction, Zval =  4.0
     Generated by new atomic code, or converted to UPF format
     Using radial grid of  899 points,  6 beta functions with:
                l(1) =   0
                l(2) =   0
                l(3) =   1
                l(4) =   1
                l(5) =   2
                l(6) =   2
     Q(r) pseudized with  8 coefficients,  rinner =    0.900   0.900   0.900
                                                       0.900   0.900

     atomic species   valence    mass     pseudopotential
        Si             4.00    28.08550     Si( 1.00)

      4 Sym. Ops., with inversion, found ( 2 have fractional translation)



   Cartesian axes

     site n.     atom                  positions (alat units)
         1           Si  tau(   1) = (   0.0000000   0.0000000   0.0000000  )
         2           Si  tau(   2) = (   0.2886752   0.2041241   0.5000000  )

     number of k points=    10  Gaussian smearing, width (Ry)=  0.0050
                       cart. coord. in units 2pi/alat
        k(    1) = (   0.0000000   0.0000000   0.0000000), wk =   0.0740741
        k(    2) = (  -0.1924501  -0.1360827   0.3333333), wk =   0.2962963
        k(    3) = (   0.0000000   0.4082483   0.0000000), wk =   0.1481481
        k(    4) = (  -0.1924501   0.2721656   0.3333333), wk =   0.2962963
        k(    5) = (   0.1924501   0.5443311  -0.3333333), wk =   0.2962963
        k(    6) = (   0.3849002  -0.1360829   0.0000000), wk =   0.1481481
        k(    7) = (   0.5773503  -0.0000001  -0.3333333), wk =   0.2962963
        k(    8) = (   0.3849002   0.2721655   0.0000000), wk =   0.1481481
        k(    9) = (   0.5773503   0.4082482  -0.3333333), wk =   0.1481481
        k(   10) = (   0.3849002  -0.5443312   0.0000000), wk =   0.1481481

     Dense  grid:    13323 G-vectors     FFT dimensions: (  36,  36,  36)

     Smooth grid:     9409 G-vectors     FFT dimensions: (  32,  32,  32)

     Estimated max dynamical RAM per process >      52.94 MB

     Initial potential from superposition of free atoms

     starting charge       7.9987, renormalised to       8.0000
     Starting wfcs are    8 randomized atomic wfcs

     total cpu time spent up to now is        1.1 secs

     Self-consistent Calculation

     iteration #  1     ecut=    40.00 Ry     beta= 0.30
     Davidson diagonalization with overlap
     ethr =  1.00E-02,  avg # of iterations =  3.2

     Threshold (ethr) on eigenvalues was too large:
     Diagonalizing with lowered threshold

     Davidson diagonalization with overlap
     ethr =  8.93E-04,  avg # of iterations =  3.2

     total cpu time spent up to now is        2.5 secs

     total energy              =     -19.15341576 Ry
     estimated scf accuracy    <       0.07055357 Ry

     iteration #  2     ecut=    40.00 Ry     beta= 0.30
     Davidson diagonalization with overlap
     ethr =  8.82E-04,  avg # of iterations =  1.0

     total cpu time spent up to now is        3.1 secs

     total energy              =     -19.14719757 Ry
     estimated scf accuracy    <       0.02979534 Ry

     iteration #  3     ecut=    40.00 Ry     beta= 0.30
     Davidson diagonalization with overlap
     ethr =  3.72E-04,  avg # of iterations =  1.8

     total cpu time spent up to now is        4.0 secs

     total energy              =     -19.14877455 Ry
     estimated scf accuracy    <       0.00037582 Ry

     iteration #  4     ecut=    40.00 Ry     beta= 0.30
     Davidson diagonalization with overlap
     ethr =  4.70E-06,  avg # of iterations =  3.3

     total cpu time spent up to now is        4.7 secs

     total energy              =     -19.14886259 Ry
     estimated scf accuracy    <       0.00000663 Ry

     iteration #  5     ecut=    40.00 Ry     beta= 0.30
     Davidson diagonalization with overlap
     ethr =  8.29E-08,  avg # of iterations =  4.4

     total cpu time spent up to now is        5.4 secs

     End of self-consistent calculation

          k = 0.0000 0.0000 0.0000 (  1243 PWs)   bands (ev):

    -5.7551   6.0799   6.0800   6.0800   8.5951   8.5951   8.5952   9.2104

          k =-0.1925-0.1361 0.3333 (  1176 PWs)   bands (ev):

    -4.4027   0.7907   5.0863   5.0864   7.7545   9.5432   9.5432  13.8449

          k = 0.0000 0.4082 0.0000 (  1176 PWs)   bands (ev):

    -4.4027   0.7907   5.0863   5.0864   7.7545   9.5432   9.5432  13.8449

          k =-0.1925 0.2722 0.3333 (  1174 PWs)   bands (ev):

    -3.8827   1.0818   3.6902   3.6902   6.8047   8.0644  13.2351  13.2351

          k = 0.1925 0.5443-0.3333 (  1182 PWs)   bands (ev):

    -2.5514  -0.6468   1.7362   3.9908   7.6330  11.8432  12.4513  13.0376

          k = 0.3849-0.1361 0.0000 (  1176 PWs)   bands (ev):

    -4.4027   0.7907   5.0864   5.0864   7.7545   9.5432   9.5432  13.8449

          k = 0.5774-0.0000-0.3333 (  1182 PWs)   bands (ev):

    -2.5514  -0.6468   1.7362   3.9908   7.6330  11.8432  12.4513  13.0376

          k = 0.3849 0.2722 0.0000 (  1174 PWs)   bands (ev):

    -3.8827   1.0818   3.6902   3.6902   6.8047   8.0644  13.2351  13.2351

          k = 0.5774 0.4082-0.3333 (  1182 PWs)   bands (ev):

    -2.5514  -0.6467   1.7362   3.9907   7.6330  11.8432  12.4513  13.0376

          k = 0.3849-0.5443 0.0000 (  1182 PWs)   bands (ev):

    -2.5514  -0.6468   1.7362   3.9908   7.6330  11.8432  12.4513  13.0376

     the Fermi energy is     6.5012 ev

!    total energy              =     -19.14886468 Ry
     estimated scf accuracy    <       0.00000054 Ry
     smearing contrib. (-TS)   =      -0.00000000 Ry
     internal energy E=F+TS    =     -19.14886468 Ry

     The total energy is F=E-TS. E is the sum of the following terms:
     one-electron contribution =       4.96198815 Ry
     hartree contribution      =       1.19326762 Ry
     xc contribution           =      -8.62425101 Ry
     ewald contribution        =     -16.67986944 Ry

     convergence has been achieved in   5 iterations

     Forces acting on atoms (cartesian axes, Ry/au):

     atom    1 type  1   force =    -0.00000028    0.00000075    0.00000000
     atom    2 type  1   force =     0.00000028   -0.00000075    0.00000000

     Total force =     0.000001     Total SCF correction =     0.000009
     SCF correction compared to forces is large: reduce conv_thr to get better values


     Computing stress (Cartesian axis) and pressure

          total   stress  (Ry/bohr**3)                   (kbar)     P=       17.84
   0.00012122   0.00000002   0.00000000           17.83        0.00        0.00
   0.00000002   0.00012124   0.00000000            0.00       17.83        0.00
   0.00000000   0.00000000   0.00012129            0.00        0.00       17.84


     Writing all to output data dir /home/demo/data/demo-default/new-job-nov-13-2023-10-32-am-clone-clone-zCQB8dh37BYnp5FR8/outdir/__prefix__.save/

     init_run     :      1.00s CPU      1.04s WALL (       1 calls)
     electrons    :      4.07s CPU      4.27s WALL (       1 calls)
     forces       :      0.35s CPU      0.38s WALL (       1 calls)
     stress       :      1.38s CPU      1.52s WALL (       1 calls)

     Called by init_run:
     wfcinit      :      0.09s CPU      0.10s WALL (       1 calls)
     potinit      :      0.14s CPU      0.15s WALL (       1 calls)
     hinit0       :      0.61s CPU      0.62s WALL (       1 calls)

     Called by electrons:
     c_bands      :      1.80s CPU      1.86s WALL (       6 calls)
     sum_band     :      1.39s CPU      1.47s WALL (       6 calls)
     v_of_rho     :      0.20s CPU      0.20s WALL (       6 calls)
     newd         :      0.84s CPU      0.92s WALL (       6 calls)
     mix_rho      :      0.01s CPU      0.01s WALL (       6 calls)

     Called by c_bands:
     init_us_2    :      0.13s CPU      0.14s WALL (     150 calls)
     init_us_2:cp :      0.13s CPU      0.14s WALL (     150 calls)
     cegterg      :      1.25s CPU      1.29s WALL (      60 calls)

     Called by *egterg:
     cdiaghg      :      0.03s CPU      0.03s WALL (     219 calls)
     h_psi        :      1.18s CPU      1.22s WALL (     239 calls)
     s_psi        :      0.02s CPU      0.03s WALL (     239 calls)
     g_psi        :      0.02s CPU      0.02s WALL (     169 calls)

     Called by h_psi:
     h_psi:calbec :      0.03s CPU      0.03s WALL (     239 calls)
     vloc_psi     :      1.11s CPU      1.15s WALL (     239 calls)
     add_vuspsi   :      0.03s CPU      0.03s WALL (     239 calls)

     General routines
     calbec       :      0.05s CPU      0.05s WALL (     349 calls)
     fft          :      0.07s CPU      0.07s WALL (     102 calls)
     ffts         :      0.01s CPU      0.01s WALL (      12 calls)
     fftw         :      0.89s CPU      0.92s WALL (    3244 calls)
     interpolate  :      0.01s CPU      0.01s WALL (       6 calls)

     Parallel routines

     PWSCF        :      6.88s CPU      7.32s WALL


   This run was terminated on:  17:42:47  13Nov2023

=------------------------------------------------------------------------------=
   JOB DONE.
=------------------------------------------------------------------------------=
