ITEM: TIMESTEP
0
ITEM: NUMBER OF ATOMS
915
ITEM: BOX BOUNDS pp pp pp
0.0000000000000000e+00 1.6869000000000000e+01
0.0000000000000000e+00 1.4609000000000000e+01
0.0000000000000000e+00 4.1478000000000002e+01
ITEM: ATOMS id element xu yu zu fx fy fz q
1 Pt           1.40569997           0.81160003          35.73899841 -0.00290584653237452   -0.070838754906104    -1.21007282469396   -0.318782006953864
2 Pt            4.2171998           0.81160003          35.73899841   0.0579615770568527  -0.0883271936995391    -1.16394613323258    -0.31565987738605
3 Pt           7.02859974           0.81160003          35.73899841  -0.0389613155891535  -0.0208242014689374     -1.1869064249332   -0.319142417202803
4 Pt           9.84009933           0.81160003          35.73899841 -0.00934473684455635    0.042633174079292    -1.22381377812207   -0.321435846418083
5 Pt          12.65159988           0.81160003          35.73899841  0.00486644095490644  0.00159595561934118    -1.06616096180549   -0.300713968215054
6 Pt          15.46299934           0.81160003          35.73899841    0.020444959191486  -0.0438637389772076     -1.1771702869104   -0.316490032091959
7 Pt                    0           3.24640012          35.73899841  -0.0281939560709827   -0.023164354696099   -0.849054657432518   -0.268527715993119
8 Pt           2.81149983           3.24640012          35.73899841 -0.00132651883091804  0.00471353749096891    -0.50939638160546   -0.216021925401007
9 Pt           5.62290001           3.24640012          35.73899841   0.0325588968691255   0.0356095829388502    -1.07473175378412   -0.302694266981944
10 Pt            8.4343996           3.24640012          35.73899841   0.0181506307704132  -0.0161704978396623    -1.17782591666937   -0.316868802814808
11 Pt          11.24580002           3.24640012          35.73899841   -0.019649764011564  0.00240078904977549    -1.13389627406175   -0.311935921957985
12 Pt          14.05730057           3.24640012          35.73899841  -0.0204546194854994   0.0199078325075939    -1.05761951247895   -0.299892020898047
13 Pt           1.40569997           5.68120003          35.73899841  -0.0151430374970032   0.0219140805742359   -0.859831905632743   -0.269984934293118
14 Pt            4.2171998           5.68120003          35.73899841   0.0612485692761774  -0.0339187523716901   -0.994656783625405   -0.290578237342165
15 Pt           7.02859974           5.68120003          35.73899841  -0.0350178405783622  -0.0498595435637178    -1.04039500538895   -0.298067299712665
16 Pt           9.84009933           5.68120003          35.73899841   0.0876554200696604   0.0134731738278202    -1.18619623426012   -0.318395771636713
17 Pt          12.65159988           5.68120003          35.73899841  -0.0428021135894241  0.00693922918382428    -1.26446191332194    -0.32945013194531
18 Pt          15.46299934           5.68120003          35.73899841  -0.0137660750596426   0.0389069005965103    -1.06937460978068    -0.30243225973995
19 Pt                    0           8.11599922          35.73899841  -0.0862169064554284  -0.0400769907270862     -1.1239746682984   -0.307620521204976
20 Pt           2.81149983           8.11599922          35.73899841 -0.00970319737488554  -0.0271404807145031   -0.528525155419948   -0.216524477568569
21 Pt           5.62290001           8.11599922          35.73899841  0.00260264359858927  -0.0255069280963436   -0.777019741867635   -0.256337838471092
22 Pt            8.4343996           8.11599922          35.73899841   0.0228301844648224  -0.0171120251256474   -0.570117209637066   -0.226787084706105
23 Pt          11.24580002           8.11599922          35.73899841   0.0279651822177985  -0.0500922165161591    -1.14545852444751   -0.313528768290478
24 Pt          14.05730057           8.11599922          35.73899841   0.0228983255965258  0.00378096330881575     -1.1850492072168   -0.318775687075616
25 Pt           1.40569997          10.55079937          35.73899841  -0.0258849676897826 -0.00387010488520641   -0.509208704164973   -0.212513398720348
26 Pt            4.2171998          10.55079937          35.73899841   0.0381090145723205  0.00994519885247065   -0.625625817990122   -0.231994410879113
27 Pt           7.02859974          10.55079937          35.73899841   0.0384274025067683   0.0607100116497381   -0.985969613948444   -0.288693292397235
28 Pt           9.84009933          10.55079937          35.73899841   0.0200734915432741   0.0432413705554744    -1.10939297814086   -0.307949797830636
29 Pt          12.65159988          10.55079937          35.73899841  -0.0339770085142852 -0.00500176178276142    -1.24644660336603   -0.324995613036292
30 Pt          15.46299934          10.55079937          35.73899841  -0.0503121904427272  -0.0122872136482158    -1.24986990879631   -0.322437215794866
31 Pt                    0          12.98560047          35.73899841  -0.0342223685206863   0.0743201216212067    -1.08160968441938   -0.303767106169286
32 Pt           2.81149983          12.98560047          35.73899841   0.0109099654904069   0.0802506445730869   -0.948471773033744      -0.284554649093
33 Pt           5.62290001          12.98560047          35.73899841 -0.00564852389581799   0.0762504173073684      -1.234263465955    -0.32439570093234
34 Pt            8.4343996          12.98560047          35.73899841 -0.00517121035020672  -0.0196990128617392    -1.10908907369052   -0.308123873746727
35 Pt          11.24580002          12.98560047          35.73899841 -0.00834368810356595  -0.0135973283890165    -1.06104289456113   -0.301055830686168
36 Pt          14.05730057          12.98560047          35.73899841   0.0205726898429484 -0.00135378064185111    -1.09801427537362    -0.30611673365014
37 Pt                    0           1.62320006          38.03450012 8.65901438984852e-06 -0.000156314329986616 -0.00308408565572527    0.017252104291994
38 Pt           2.81149983           1.62320006          38.03450012 7.02470042315804e-06 -0.000347209310004863 -0.00286544345184091   0.0165352215158893
39 Pt           5.62290001           1.62320006          38.03450012 1.44677005219177e-05 4.51120851110224e-05 -0.00316927826552077   0.0175623357168072
40 Pt            8.4343996           1.62320006          38.03450012 -2.59083352877895e-05 -4.96631968575486e-05 -0.00339582977781601   0.0182136590691673
41 Pt          11.24580002           1.62320006          38.03450012 -4.0772907538941e-05 -4.20831547980762e-05 -0.00326180001390816   0.0178034770180863
42 Pt          14.05730057           1.62320006          38.03450012 5.20839876474421e-05 -2.90532263060409e-05  -0.0032705443529697    0.017756952111902
43 Pt           1.40569997           4.05799961          38.03450012 -0.000187437136560834 0.000101653373243392 -0.00223585950881761       0.014689369828
44 Pt            4.2171998           4.05799961          38.03450012 0.000220673805477483 6.18713232882665e-05 -0.00230753919896722   0.0150218882101126
45 Pt           7.02859974           4.05799961          38.03450012 0.000132912092761961 -7.09481831343243e-05 -0.00300505971198427   0.0172139341154163
46 Pt           9.84009933           4.05799961          38.03450012 -7.84547112605852e-05 5.16832286320188e-05 -0.00328160235571841   0.0179159587368758
47 Pt          12.65159988           4.05799961          38.03450012 -1.83995848469092e-05 8.06409899753303e-05 -0.00322962237713002   0.0177397915717556
48 Pt          15.46299934           4.05799961          38.03450012 -9.39332011998099e-05 6.71157380225343e-05  -0.0029692042893244   0.0169556680917016
49 Pt                    0           6.49280024          38.03450012 -6.65960335046651e-05 3.22472492419892e-05 -0.00271244833301629   0.0163464090410484
50 Pt           2.81149983           6.49280024          38.03450012 5.75824481961455e-05 -0.000225503716545557 -0.00224592454418539   0.0147837025988229
51 Pt           5.62290001           6.49280024          38.03450012 1.99832935361507e-05 -8.4468910810867e-05 -0.00245549992046132   0.0155386741274961
52 Pt            8.4343996           6.49280024          38.03450012 3.86328371368609e-05 -0.000371377133535976 -0.00274280599767683   0.0162168319746806
53 Pt          11.24580002           6.49280024          38.03450012 7.05367320681525e-05 -3.9615324766471e-05 -0.00283989303127176   0.0169156870999289
54 Pt          14.05730057           6.49280024          38.03450012 -0.000126813031897124 -2.3070173337462e-05 -0.00331417761635371   0.0179044152288702
55 Pt           1.40569997           8.92759991          38.03450012 -0.000287078573110132 -0.000169554771142248 -0.00213302543702996   0.0142742774988014
56 Pt            4.2171998           8.92759991          38.03450012 0.000145603711045667 -8.27351889256905e-06 -0.00191545902170349   0.0136111787574632
57 Pt           7.02859974           8.92759991          38.03450012 -0.00011120521867241 0.000184598891548164 -0.00241530815932299    0.015155828479732
58 Pt           9.84009933           8.92759991          38.03450012 0.000296744814357374 0.000184580339070469 -0.00280202803791363   0.0163183857383505
59 Pt          12.65159988           8.92759991          38.03450012 1.77145825122558e-05 5.32278324967167e-05 -0.00344630432314563   0.0183175366426086
60 Pt          15.46299934           8.92759991          38.03450012 -3.07313537389084e-05 0.000110241032047209 -0.00317339929294998    0.017687407373174
61 Pt                    0          11.36240005          38.03450012 -0.000360729289839044 0.000134755097157304 -0.00288256684998864   0.0166352730935353
62 Pt           2.81149983          11.36240005          38.03450012 5.51690206229587e-05 0.000240331264216127 -0.00225172767588062   0.0145934022782486
63 Pt           5.62290001          11.36240005          38.03450012 0.000172478723754917 0.000223090178032336 -0.00276183103243359   0.0163643816019484
64 Pt            8.4343996          11.36240005          38.03450012 4.33416418904942e-05 3.85839249370085e-05 -0.00279073779027433   0.0166350095950755
65 Pt          11.24580002          11.36240005          38.03450012  7.9345691831868e-05 -6.64903626169642e-05 -0.00307003878837507   0.0174252603433324
66 Pt          14.05730057          11.36240005          38.03450012 -8.91891073287942e-06 -7.92092222000438e-05 -0.00348663281611904   0.0184449969846555
67 Pt           1.40569997          13.79719925          38.03450012 -4.68937773756401e-05 5.20526072783586e-05 -0.00281895985739312   0.0167165845331474
68 Pt            4.2171998          13.79719925          38.03450012 6.35611738996346e-05 -1.3191822980379e-05 -0.00271891954704423   0.0165051313656889
69 Pt           7.02859974          13.79719925          38.03450012 3.92075214972474e-05 -2.01459259607701e-05 -0.00319173329175376   0.0176923081100466
70 Pt           9.84009933          13.79719925          38.03450012 -3.11136974180181e-05 0.000118061599128842 -0.00338799193954727    0.018080294326175
71 Pt          12.65159988          13.79719925          38.03450012 3.32400379871984e-06 -1.07688572362449e-05 -0.00322375447897698   0.0176626836779008
72 Pt          15.46299934          13.79719925          38.03450012 -4.70938605521968e-05 7.53658344310897e-06 -0.00293317223074646   0.0170759762246849
73 Pt                    0                    0          40.33010101 -1.03906779798875e-07 7.20992520587758e-08 -5.54099764058392e-06 -0.000765512896791519
74 Pt           2.81149983                    0          40.33010101 4.31345965920007e-09 5.51146952268595e-09 -5.13024013065137e-06 -0.000736552010263023
75 Pt           5.62290001                    0          40.33010101 2.49803125641108e-07 2.01366301250182e-07 -5.98648394211677e-06 -0.000791598721086497
76 Pt            8.4343996                    0          40.33010101 2.91225661069164e-08 2.09953948450953e-08 -6.4587708074439e-06 -0.000827997634130285
77 Pt          11.24580002                    0          40.33010101 7.49942835102183e-09 -9.16423627218997e-08 -6.74802994807093e-06 -0.000841002849409275
78 Pt          14.05730057                    0          40.33010101 -1.8953956470859e-07 7.07455784092852e-08 -6.34552666605153e-06 -0.000816194951826586
79 Pt           1.40569997           2.43479991          40.33010101 1.49879438558738e-07 -7.23076915729978e-08 -6.47620323515966e-06 -0.000817273180031728
80 Pt            4.2171998           2.43479991          40.33010101 -2.19248388791036e-07 -1.47279756339807e-07 -6.21968853648305e-06 -0.000805368161536283
81 Pt           7.02859974           2.43479991          40.33010101 9.10042941752581e-08 -1.83181576971743e-07 -6.17593563654456e-06 -0.000808425968960229
82 Pt           9.84009933           2.43479991          40.33010101 2.10718759471955e-08 2.34770395991308e-08 -6.83950951215102e-06 -0.000843688013157495
83 Pt          12.65159988           2.43479991          40.33010101 -1.40573251297869e-08 -1.70116025162323e-08 -7.0764842463435e-06 -0.000855587879831294
84 Pt          15.46299934           2.43479991          40.33010101 -2.52276133686385e-08 1.60932698012879e-09 -6.61809749353485e-06 -0.000828948736802206
85 Pt                    0           4.86959982          40.33010101 -3.25743432429193e-07 -2.59144079186383e-08 -5.22238596449868e-06 -0.000742865845578727
86 Pt           2.81149983           4.86959982          40.33010101 -2.11649875576316e-08 -4.02782223792001e-07 -4.94501329789286e-06 -0.000722764088312631
87 Pt           5.62290001           4.86959982          40.33010101  3.2170198089935e-07 -1.27321129919903e-07 -4.8120792986283e-06  -0.0007160116309379
88 Pt            8.4343996           4.86959982          40.33010101 5.51626673413565e-08 -2.1573603921822e-07 -5.1643398941135e-06 -0.000749904374469585
89 Pt          11.24580002           4.86959982          40.33010101 -2.49666415902743e-08 -3.42822819608007e-07 -6.04188557931824e-06 -0.00079454055337773
90 Pt          14.05730057           4.86959982          40.33010101 -2.16299181393878e-08 3.24044090532125e-08 -6.2210764671224e-06 -0.000809196093763456
91 Pt           1.40569997           7.30439949          40.33010101 1.10827684689861e-07 -1.02991873736589e-07 -4.94380705771263e-06 -0.000718843407097309
92 Pt            4.2171998           7.30439949          40.33010101 -8.31911926573922e-08 -8.30131926777675e-09 -4.72049723107852e-06 -0.00070512019161026
93 Pt           7.02859974           7.30439949          40.33010101 4.75411849864207e-07 1.79840437839116e-07 -6.21709562597956e-06 -0.000799950350403141
94 Pt           9.84009933           7.30439949          40.33010101 -3.47256515324693e-07 3.20723928687822e-07 -6.6534811635887e-06 -0.000825464717125897
95 Pt          12.65159988           7.30439949          40.33010101 2.48847319175194e-07 2.89788892418933e-07 -6.21729008585831e-06 -0.000809281944333503
96 Pt          15.46299934           7.30439949          40.33010101 -4.17289269631476e-07 3.71645379836935e-08 -6.30831201921516e-06 -0.000810165358157096
97 Pt                    0           9.73919964          40.33010101 -7.23787454259803e-08 3.56973327659665e-07 -5.53022001305043e-06 -0.000765051873324866
98 Pt           2.81149983           9.73919964          40.33010101 -2.52879235333899e-07 1.32090072229209e-07 -6.1837727842939e-06 -0.000788562434130296
99 Pt           5.62290001           9.73919964          40.33010101 5.69581767882849e-08 3.39309105830218e-07 -4.84505071456651e-06 -0.00072034591475372
100 Pt            8.4343996           9.73919964          40.33010101 1.54003059881847e-07 -3.71135478130207e-07 -6.13359654498546e-06 -0.000801419749762093
101 Pt          11.24580002           9.73919964          40.33010101 2.49585376360426e-07 -6.32259117460502e-08 -5.61786597280244e-06 -0.000778524602511645
102 Pt          14.05730057           9.73919964          40.33010101 -1.45028378327565e-07 -5.44583853617536e-08 -6.34380569577899e-06 -0.000821407048598668
103 Pt           1.40569997          12.17399979          40.33010101 -2.86998935668621e-07 -2.49192127752878e-07 -5.96279671979082e-06 -0.000783978214925232
104 Pt            4.2171998          12.17399979          40.33010101 1.63050079692085e-07 -1.28479913077796e-07 -5.01019347530929e-06  -0.0007297587252111
105 Pt           7.02859974          12.17399979          40.33010101 1.26509524611571e-07 1.67230276719082e-07 -5.35224156463909e-06 -0.000756662430125986
106 Pt           9.84009933          12.17399979          40.33010101 1.77296726551005e-07 3.16600506450204e-07 -6.44484343703677e-06 -0.000819003462787762
107 Pt          12.65159988          12.17399979          40.33010101 1.22525827932858e-07 8.98304997712079e-08 -6.59744170046408e-06 -0.000831387740056347
108 Pt          15.46299934          12.17399979          40.33010101 -3.01584057713259e-07 2.40637665871949e-09 -5.66308937956748e-06 -0.000778197980342321
109 Pt           1.40569997           0.81160003           1.14759994 3.21721645408157e-07 -5.48389330868091e-07 6.39763676456469e-06 0.000811210536793145
110 Pt            4.2171998           0.81160003           1.14759994  5.6371797411403e-09 -4.3000563205258e-07  6.0540163841433e-06   0.0007984293304504
111 Pt           7.02859974           0.81160003           1.14759994 4.84851609789076e-08 -1.15471427955941e-07 7.25429289577528e-06 0.000861762694370454
112 Pt           9.84009933           0.81160003           1.14759994 -1.28512647506564e-07 -2.07674926535069e-07 6.09201709647102e-06 0.000799256378029666
113 Pt          12.65159988           0.81160003           1.14759994 -2.03903642291948e-07 -2.67400123538164e-07 5.21636755506467e-06  0.00074283571662207
114 Pt          15.46299934           0.81160003           1.14759994 -1.94610861124607e-08 -8.51987015018112e-08 5.76758546712904e-06 0.000766259546072892
115 Pt                    0           3.24640012           1.14759994 -1.58356842652896e-07 7.79477128437475e-08  5.2292857279394e-06 0.000734558355280629
116 Pt           2.81149983           3.24640012           1.14759994 4.51046891405101e-08 -1.95991940734867e-07 4.99792146834615e-06 0.000722628650564945
117 Pt           5.62290001           3.24640012           1.14759994 5.24959321248742e-07 2.17670177885169e-08 6.62115068219855e-06 0.000822463835366039
118 Pt            8.4343996           3.24640012           1.14759994 1.10324296939697e-07 -7.65449187926542e-08 6.00685932694491e-06 0.000796651055635518
119 Pt          11.24580002           3.24640012           1.14759994 -2.52551723936313e-07 1.20966114208081e-07 5.91975495989414e-06 0.000790687605316128
120 Pt          14.05730057           3.24640012           1.14759994 -2.26155400103457e-07 2.08180102054545e-07  5.3634793946611e-06 0.000748657013263488
121 Pt           1.40569997           5.68120003           1.14759994 -1.75242748799974e-07 1.68519834023942e-07 5.14146935456797e-06 0.000732631466416161
122 Pt            4.2171998           5.68120003           1.14759994 4.74703488761317e-07 1.34650211222496e-07 6.28774910596801e-06  0.00080269320257655
123 Pt           7.02859974           5.68120003           1.14759994 -1.15848484582874e-07 3.74767259508637e-07 6.10654334182777e-06 0.000807904255520724
124 Pt           9.84009933           5.68120003           1.14759994 1.05191743527515e-07 3.47682337705729e-07 6.11917047464283e-06 0.000816630543570306
125 Pt          12.65159988           5.68120003           1.14759994 -3.0089903836412e-07 2.65209920041987e-07 6.01960992263444e-06 0.000801956858881334
126 Pt          15.46299934           5.68120003           1.14759994 2.47559839512712e-08 1.98646207819216e-07 5.17913119741503e-06 0.000738904271092416
127 Pt                    0           8.11599922           1.14759994 8.58754511853188e-08 1.90776128390154e-09 5.59182733980788e-06 0.000766804205450158
128 Pt           2.81149983           8.11599922           1.14759994 2.04234791060244e-08  1.3263344608293e-07 6.03253136170854e-06 0.000790169483271401
129 Pt           5.62290001           8.11599922           1.14759994 2.96508997428322e-07 4.00675509001987e-08 7.73363263739842e-06 0.000888287379905614
130 Pt            8.4343996           8.11599922           1.14759994  3.5239105151989e-07 -2.42658647635654e-07 7.91306208295511e-06 0.000905088543767509
131 Pt          11.24580002           8.11599922           1.14759994 -2.58975334226923e-07 -3.57564942850507e-07  7.8503736493157e-06  0.00090661838671082
132 Pt          14.05730057           8.11599922           1.14759994 -4.83458262312471e-07 2.13907681098688e-07 7.02246188292056e-06 0.000844914687202784
133 Pt           1.40569997          10.55079937           1.14759994 2.92314815951241e-07  6.0645997052452e-08 5.62038008888703e-06 0.000776248370850945
134 Pt            4.2171998          10.55079937           1.14759994 -1.59885711043819e-07 -3.64636308024976e-08 6.18725960559782e-06 0.000807486524509726
135 Pt           7.02859974          10.55079937           1.14759994 -2.24559987193797e-07 9.89756903628516e-08 7.34046651072479e-06 0.000870469735062592
136 Pt           9.84009933          10.55079937           1.14759994 -1.7673647726466e-07 -4.41717197613177e-08 6.42872687477147e-06 0.000830709940207028
137 Pt          12.65159988          10.55079937           1.14759994 5.81584381041503e-08 -1.11334518958102e-07  5.6396266053917e-06  0.00077954175626715
138 Pt          15.46299934          10.55079937           1.14759994 1.76259581469284e-07 3.25298611384861e-07 6.49139771398671e-06 0.000815470872019324
139 Pt                    0          12.98560047           1.14759994 7.71805780044545e-08 6.33827168085034e-08  5.5651350242842e-06  0.00077189555698985
140 Pt           2.81149983          12.98560047           1.14759994 1.30696039596098e-08 1.69761945779429e-07 5.31513527990066e-06 0.000765941953996062
141 Pt           5.62290001          12.98560047           1.14759994 3.11440327710447e-07 1.78735191785522e-07 5.81145981508584e-06 0.000790791443821492
142 Pt            8.4343996          12.98560047           1.14759994 -1.86256698971608e-07 -1.94618811571645e-07 7.46374768077242e-06 0.000877952413904577
143 Pt          11.24580002          12.98560047           1.14759994 -1.30457085451234e-07 -3.27657862941419e-07 6.42248506172501e-06 0.000818839579176499
144 Pt          14.05730057          12.98560047           1.14759994 -1.07534448704431e-07 -5.22479922641554e-08 5.70929447647056e-06 0.000773642159162773
145 Pt                    0           1.62320006           3.44320011 0.000154909062613204 -3.24283411158479e-05  0.00201673329910504  -0.0138718771741074
146 Pt           2.81149983           1.62320006           3.44320011 0.000204616062818038 -5.66859642494665e-05  0.00289532484281463  -0.0167555926849908
147 Pt           5.62290001           1.62320006           3.44320011 -0.000182209286870127 -7.58845295999476e-05  0.00298219896454564  -0.0169729326580902
148 Pt            8.4343996           1.62320006           3.44320011 0.000113844354114395 0.000131740072169554  0.00274530342168695  -0.0162730119563286
149 Pt          11.24580002           1.62320006           3.44320011 -6.01330026365554e-05   5.927161785397e-05  0.00271493295651086  -0.0163597374800457
150 Pt          14.05730057           1.62320006           3.44320011 -0.000225140782140758 6.67265134385992e-05  0.00204868831401786  -0.0140952842128005
151 Pt           1.40569997           4.05799961           3.44320011 9.37435039949847e-05 -3.75046264752511e-06  0.00212053686154734   -0.014335831491366
152 Pt            4.2171998           4.05799961           3.44320011 3.65132943170214e-05 -0.000178249384529317  0.00262101394535168  -0.0160088433073049
153 Pt           7.02859974           4.05799961           3.44320011 0.000361790091188721 0.000268353262784893  0.00308469432901518  -0.0174067433095798
154 Pt           9.84009933           4.05799961           3.44320011 -2.11422051664746e-05 0.000289170407134331  0.00381278889689864  -0.0195306289076647
155 Pt          12.65159988           4.05799961           3.44320011 -0.000305630896109855 0.000163777517400827  0.00318192691487258  -0.0177120555731707
156 Pt          15.46299934           4.05799961           3.44320011 -0.000159510218805891 0.000122906468340456  0.00217423931899953  -0.0144102852844462
157 Pt                    0           6.49280024           3.44320011 -5.48902764385735e-05 8.93862870222538e-05  0.00245488681107814  -0.0152576089575818
158 Pt           2.81149983           6.49280024           3.44320011 2.63434098550199e-05 -4.14164209935986e-05  0.00231448699319856  -0.0149590406017756
159 Pt           5.62290001           6.49280024           3.44320011 0.000190548516624335 7.71678189404278e-06  0.00321265177674623  -0.0173914643922266
160 Pt            8.4343996           6.49280024           3.44320011 0.000116050387228829 -0.00021725678188332   0.0038317645616328  -0.0195043332147195
161 Pt          11.24580002           6.49280024           3.44320011 -0.000166541669341887 -0.000170072938661274  0.00391625984579935  -0.0196313249608214
162 Pt          14.05730057           6.49280024           3.44320011 -0.00011532854655951 -1.51099269887419e-05  0.00266198904250779  -0.0161270236840899
163 Pt           1.40569997           8.92759991           3.44320011 -1.94467980939968e-05  0.00023383555648998  0.00277004867479469  -0.0164611848226982
164 Pt            4.2171998           8.92759991           3.44320011 -4.07648981664804e-05 0.000168957197056951   0.0027827109316494  -0.0164016266794849
165 Pt           7.02859974           8.92759991           3.44320011 0.000379704268794506 9.56950540041025e-05  0.00362000130188804  -0.0187344731834838
166 Pt           9.84009933           8.92759991           3.44320011 4.56456311686986e-05 0.000197766066613849  0.00459465754918884  -0.0212987618326081
167 Pt          12.65159988           8.92759991           3.44320011 -0.000383578989193693 0.000204122193115869  0.00380557403670412  -0.0192919911747895
168 Pt          15.46299934           8.92759991           3.44320011 2.46072636938436e-05 0.000126753329866532  0.00266202804637414  -0.0161534812207897
169 Pt                    0          11.36240005           3.44320011  0.00044462268630053 0.000121689911640306  0.00334714493431318  -0.0181466070352625
170 Pt           2.81149983          11.36240005           3.44320011 -9.0561822938309e-06 0.000329877112491118  0.00396922048488448  -0.0199876381896961
171 Pt           5.62290001          11.36240005           3.44320011 -0.000302125441441956 0.000207736828576317  0.00328187128759104  -0.0180365259685484
172 Pt            8.4343996          11.36240005           3.44320011 6.39180275385582e-06  -0.0002935762462297  0.00367368169519129  -0.0189365601284592
173 Pt          11.24580002          11.36240005           3.44320011 -4.13254359499925e-06 -0.000419387463730198  0.00341629478689119  -0.0184520331116016
174 Pt          14.05730057          11.36240005           3.44320011 -0.00011884042592375 -8.0391081376142e-05  0.00278593817656274  -0.0164982028413927
175 Pt           1.40569997          13.79719925           3.44320011 0.000178545043503391 -0.000439164342482807  0.00343491103605445  -0.0182829216351833
176 Pt            4.2171998          13.79719925           3.44320011 1.39110195731885e-05 -0.000329308146506728  0.00340066200459568  -0.0184549586879991
177 Pt           7.02859974          13.79719925           3.44320011 -0.000103440295982353 -0.000111181214870273  0.00331029534036764  -0.0177297200092921
178 Pt           9.84009933          13.79719925           3.44320011 9.58186331111452e-06 -0.000147266795065706  0.00290032669030199  -0.0166969096036368
179 Pt          12.65159988          13.79719925           3.44320011 -0.000123226547665835 -0.000103894827792686  0.00270032096927453  -0.0160994937862858
180 Pt          15.46299934          13.79719925           3.44320011 3.01965991714096e-05 -0.000170516181698151  0.00231090944943534  -0.0149019962360726
181 Pt                    0                    0           5.73869991 -0.00199935873507744  -0.0270588047926626    0.695139218381707    0.242733981343455
182 Pt           2.81149983                    0           5.73869991   0.0572506199159532  -0.0419009156296798     1.03547431733321    0.297164212048911
183 Pt           5.62290001                    0           5.73869991  -0.0520654431208521  -0.0136913042584456     1.10312015905145    0.305347103210113
184 Pt            8.4343996                    0           5.73869991    0.018137619142734   0.0439524461602564    0.782434972051535    0.255867597041712
185 Pt          11.24580002                    0           5.73869991  -0.0262157393283865   0.0260280467312505    0.917844968849758    0.277870714838237
186 Pt          14.05730057                    0           5.73869991  0.00232169303438514   0.0106231110496331    0.661101968901591    0.237388490433977
187 Pt           1.40569997           2.43479991           5.73869991    0.043973435167796   0.0038337818828249    0.746935650201402    0.251089549562005
188 Pt            4.2171998           2.43479991           5.73869991  0.00141291063890459 -0.00537176090739756     1.24486381555595    0.322178508444459
189 Pt           7.02859974           2.43479991           5.73869991  -0.0257609044019599   0.0311631137078982    0.824383193429492    0.268503949971229
190 Pt           9.84009933           2.43479991           5.73869991   0.0316024582742051   0.0579266434669836     1.12360567757952    0.309994810918802
191 Pt          12.65159988           2.43479991           5.73869991  -0.0536383896735989    0.025312935128994    0.946522909545092    0.283402151565871
192 Pt          15.46299934           2.43479991           5.73869991 -0.00758024517231963  -0.0358087922775491    0.539048515791391    0.216780831420562