ITEM: TIMESTEP
0
ITEM: NUMBER OF ATOMS
218
ITEM: BOX BOUNDS pp pp pp
0.0000000000000000e+00 1.6869000000000000e+01
0.0000000000000000e+00 1.4609000000000000e+01
0.0000000000000000e+00 4.1478000000000002e+01
ITEM: ATOMS id element xu yu zu fx fy fz q
1 Pt 1.40573 0.811598 35.739 1.5091e-07 -3.70216e-07 -0.0124977 0.00678665
2 Pt 4.21718 0.811598 35.739 5.53159e-07 -3.51118e-07 -0.012502 0.0067878
3 Pt 7.02864 0.811598 35.739 -2.92983e-09 -3.538e-07 -0.0125043 0.00678848
4 Pt 9.8401 0.811598 35.739 -4.80521e-07 -3.51358e-07 -0.012502 0.00678783
5 Pt 12.6516 0.811598 35.739 -6.7828e-07 -3.6896e-07 -0.0124974 0.0067865
6 Pt 15.463 0.811598 35.739 5.00115e-07 -4.00638e-07 -0.0124956 0.0067861
7 Pt 0 3.24639 35.739 -3.89896e-08 2.90778e-07 -0.0124966 0.00678634
8 Pt 2.81146 3.24639 35.739 6.87085e-07 4.05226e-07 -0.0125 0.00678728
9 Pt 5.62291 3.24639 35.739 1.98689e-07 2.94482e-07 -0.012504 0.0067883
10 Pt 8.43437 3.24639 35.739 -2.2395e-07 2.94579e-07 -0.012504 0.00678828
11 Pt 11.2458 3.24639 35.739 -5.97929e-07 4.05194e-07 -0.0125001 0.00678732
12 Pt 14.0573 3.24639 35.739 -6.7408e-08 2.90321e-07 -0.0124963 0.00678616
13 Pt 1.40573 5.68118 35.739 3.03354e-07 7.85626e-08 -0.0124991 0.00678713
14 Pt 4.21718 5.68118 35.739 3.49949e-07 -6.75425e-08 -0.0125032 0.00678817
15 Pt 7.02864 5.68118 35.739 -2.87474e-09 -1.66854e-07 -0.0125055 0.0067883
16 Pt 9.8401 5.68118 35.739 -2.77278e-07 -6.77976e-08 -0.0125033 0.00678819
17 Pt 12.6516 5.68118 35.739 -8.30808e-07 7.97823e-08 -0.0124988 0.00678698
18 Pt 15.463 5.68118 35.739 5.00169e-07 5.69745e-08 -0.012497 0.00678646
19 Pt 0 8.11598 35.739 -5.1544e-09 -7.24593e-08 -0.0124978 0.00678671
20 Pt 2.81146 8.11598 35.739 5.15001e-07 -1.53e-07 -0.0125011 0.00678753
21 Pt 5.62291 8.11598 35.739 1.27821e-07 3.52926e-08 -0.012505 0.00678814
22 Pt 8.43437 8.11598 35.739 -1.5311e-07 3.53534e-08 -0.0125049 0.00678813
23 Pt 11.2458 8.11598 35.739 -4.2587e-07 -1.53089e-07 -0.0125012 0.00678757
24 Pt 14.0573 8.11598 35.739 -1.01217e-07 -7.29075e-08 -0.0124974 0.00678653
25 Pt 1.40573 10.5508 35.739 1.91936e-07 -9.42678e-08 -0.0124985 0.00678686
26 Pt 4.21718 10.5508 35.739 5.74671e-07 2.63949e-08 -0.0125027 0.00678797
27 Pt 7.02864 10.5508 35.739 -2.87734e-09 1.38586e-07 -0.012505 0.00678864
28 Pt 9.8401 10.5508 35.739 -5.02035e-07 2.61559e-08 -0.0125028 0.00678799
29 Pt 12.6516 10.5508 35.739 -7.19336e-07 -9.30417e-08 -0.0124982 0.00678671
30 Pt 15.463 10.5508 35.739 5.00145e-07 -6.43305e-08 -0.0124964 0.00678626
31 Pt 0 12.9856 35.739 -7.90709e-08 1.99804e-07 -0.0124966 0.00678644
32 Pt 2.81146 12.9856 35.739 6.0135e-07 1.3862e-07 -0.0125 0.00678728
33 Pt 5.62291 12.9856 35.739 3.3991e-07 3.13528e-08 -0.012504 0.0067885
34 Pt 8.43437 12.9856 35.739 -3.65202e-07 3.14262e-08 -0.012504 0.00678849
35 Pt 11.2458 12.9856 35.739 -5.12193e-07 1.38523e-07 -0.0125001 0.00678732
36 Pt 14.0573 12.9856 35.739 -2.72938e-08 1.9939e-07 -0.0124962 0.00678626
37 Pt 0 1.62319 38.0345 -7.6567e-09 -3.95436e-09 -3.62319e-05 -0.000390547
38 Pt 2.81146 1.62319 38.0345 2.33589e-08 1.6889e-08 -3.62368e-05 -0.00039108
39 Pt 5.62291 1.62319 38.0345 -1.94797e-08 5.08314e-08 -3.62297e-05 -0.000391115
40 Pt 8.43437 1.62319 38.0345 1.95012e-08 5.08953e-08 -3.62299e-05 -0.000391116
41 Pt 11.2458 1.62319 38.0345 -2.39834e-08 1.75647e-08 -3.62332e-05 -0.000391064
42 Pt 14.0573 1.62319 38.0345 9.38835e-09 -8.77145e-09 -3.6252e-05 -0.000390634
43 Pt 1.40573 4.05799 38.0345 1.14745e-08 4.90598e-10 -3.62078e-05 -0.000390764
44 Pt 4.21718 4.05799 38.0345 5.79222e-08 1.82089e-08 -3.6137e-05 -0.000391741
45 Pt 7.02864 4.05799 38.0345 1.87752e-11 -3.45256e-08 -3.62963e-05 -0.000389541
46 Pt 9.8401 4.05799 38.0345 -5.79908e-08 1.77317e-08 -3.61377e-05 -0.000391744
47 Pt 12.6516 4.05799 38.0345 -1.00465e-08 2.05318e-09 -3.62076e-05 -0.000390762
48 Pt 15.463 4.05799 38.0345 -2.50113e-09 -1.15472e-08 -3.62266e-05 -0.000390338
49 Pt 0 6.49278 38.0345 2.8287e-08 2.06103e-08 -3.62068e-05 -0.000390924
50 Pt 2.81146 6.49278 38.0345 4.69861e-08 4.00761e-08 -3.61352e-05 -0.000391758
51 Pt 5.62291 6.49278 38.0345 3.65755e-08 2.18622e-08 -3.6364e-05 -0.000388705
52 Pt 8.43437 6.49278 38.0345 -3.65536e-08 2.19253e-08 -3.63643e-05 -0.000388706
53 Pt 11.2458 6.49278 38.0345 -4.7614e-08 4.07476e-08 -3.61316e-05 -0.000391742
54 Pt 14.0573 6.49278 38.0345 -2.6561e-08 1.579e-08 -3.62269e-05 -0.00039101
55 Pt 1.40573 8.92757 38.0345 2.13779e-08 -3.0093e-08 -3.62119e-05 -0.000391215
56 Pt 4.21718 8.92757 38.0345 -2.87004e-08 1.97672e-08 -3.62967e-05 -0.000389609
57 Pt 7.02864 8.92757 38.0345 2.00113e-11 -3.85888e-08 -3.63685e-05 -0.000388748
58 Pt 9.8401 8.92757 38.0345 2.86323e-08 1.92902e-08 -3.62974e-05 -0.000389612
59 Pt 12.6516 8.92757 38.0345 -1.99484e-08 -2.85269e-08 -3.62116e-05 -0.000391212
60 Pt 15.463 8.92757 38.0345 -2.50346e-09 1.30421e-09 -3.62339e-05 -0.000390554
61 Pt 0 11.3624 38.0345 -1.1467e-08 1.0374e-08 -3.62214e-05 -0.000390427
62 Pt 2.81146 11.3624 38.0345 3.75213e-08 -4.25467e-09 -3.62116e-05 -0.000391186
63 Pt 5.62291 11.3624 38.0345 -1.12129e-08 -6.39668e-08 -3.61399e-05 -0.000391747
64 Pt 8.43437 11.3624 38.0345 1.12351e-08 -6.3903e-08 -3.61401e-05 -0.000391748
65 Pt 11.2458 11.3624 38.0345 -3.81451e-08 -3.57937e-09 -3.6208e-05 -0.00039117
66 Pt 14.0573 11.3624 38.0345 1.31991e-08 5.56206e-09 -3.62415e-05 -0.000390514
67 Pt 1.40573 13.7972 38.0345 -4.24058e-09 -7.47127e-10 -3.62309e-05 -0.000390568
68 Pt 4.21718 13.7972 38.0345 -9.69261e-09 -3.32633e-08 -3.62219e-05 -0.000390957
69 Pt 7.02864 13.7972 38.0345 1.89191e-11 -3.01722e-08 -3.62106e-05 -0.000390572
70 Pt 9.8401 13.7972 38.0345 9.62375e-09 -3.37409e-08 -3.62226e-05 -0.00039096
71 Pt 12.6516 13.7972 38.0345 5.6682e-09 8.15512e-10 -3.62307e-05 -0.000390565
72 Pt 15.463 13.7972 38.0345 -2.50451e-09 1.66536e-09 -3.62122e-05 -0.00039058
73 Pt 0 0 40.3301 -2.82128e-10 -1.04092e-09 -7.01782e-08 1.76331e-05
74 Pt 2.81146 0 40.3301 -2.47408e-09 -9.47205e-10 -6.78922e-08 1.69647e-05
75 Pt 5.62291 0 40.3301 1.50018e-10 -7.43119e-10 -6.97366e-08 1.60992e-05
76 Pt 8.43437 0 40.3301 -1.49699e-10 -7.42923e-10 -6.97378e-08 1.60994e-05
77 Pt 11.2458 0 40.3301 2.47292e-09 -9.4721e-10 -6.78866e-08 1.69641e-05
78 Pt 14.0573 0 40.3301 2.85794e-10 -1.04528e-09 -7.02259e-08 1.76384e-05
79 Pt 1.40573 2.43479 40.3301 -4.02516e-09 -2.60007e-09 -6.94859e-08 1.65424e-05
80 Pt 4.21718 2.43479 40.3301 2.1803e-08 3.83876e-08 -3.69101e-08 2.48652e-05
81 Pt 7.02864 2.43479 40.3301 2.30372e-13 -3.211e-09 -7.5689e-08 1.71148e-05
82 Pt 9.8401 2.43479 40.3301 -2.18052e-08 3.83871e-08 -3.6908e-08 2.48649e-05
83 Pt 12.6516 2.43479 40.3301 4.03939e-09 -2.60011e-09 -6.9509e-08 1.65451e-05
84 Pt 15.463 2.43479 40.3301 -1.53382e-11 -1.34658e-09 -7.10269e-08 1.68737e-05
85 Pt 0 4.86959 40.3301 -3.50209e-09 -2.39972e-09 -6.99314e-08 1.63243e-05
86 Pt 2.81146 4.86959 40.3301 2.19669e-08 1.26285e-08 -6.73295e-08 2.33985e-05
87 Pt 5.62291 4.86959 40.3301 -2.04388e-08 -5.80258e-09 -9.19824e-08 1.49055e-05
88 Pt 8.43437 4.86959 40.3301 2.04393e-08 -5.80243e-09 -9.19838e-08 1.49057e-05
89 Pt 11.2458 4.86959 40.3301 -2.19681e-08 1.26285e-08 -6.73236e-08 2.33979e-05
90 Pt 14.0573 4.86959 40.3301 3.50636e-09 -2.40439e-09 -6.99789e-08 1.63295e-05
91 Pt 1.40573 7.30438 40.3301 4.36848e-08 1.84339e-10 -3.53261e-08 2.51246e-05
92 Pt 4.21718 7.30438 40.3301 -1.5125e-08 -1.49743e-08 -9.18967e-08 1.49031e-05
93 Pt 7.02864 7.30438 40.3301 2.82528e-13 -8.05239e-11 -6.49381e-08 1.97038e-05
94 Pt 9.8401 7.30438 40.3301 1.51237e-08 -1.49739e-08 -9.18945e-08 1.49029e-05
95 Pt 12.6516 7.30438 40.3301 -4.36662e-08 1.85128e-10 -3.53508e-08 2.51268e-05
96 Pt 15.463 7.30438 40.3301 -1.38031e-11 1.9415e-09 -6.79616e-08 1.69757e-05
97 Pt 0 9.73917 40.3301 -5.60116e-09 3.00287e-09 -7.02049e-08 1.73804e-05
98 Pt 2.81146 9.73917 40.3301 -3.96919e-09 2.36828e-09 -7.47665e-08 1.75262e-05
99 Pt 5.62291 9.73917 40.3301 5.41771e-09 2.08703e-08 -9.1665e-08 1.48787e-05
100 Pt 8.43437 9.73917 40.3301 -5.41741e-09 2.08706e-08 -9.16665e-08 1.48788e-05
101 Pt 11.2458 9.73917 40.3301 3.96788e-09 2.36779e-09 -7.47609e-08 1.75256e-05
102 Pt 14.0573 9.73917 40.3301 5.60629e-09 2.99959e-09 -7.02525e-08 1.73856e-05
103 Pt 1.40573 12.174 40.3301 -5.21654e-09 2.66967e-09 -7.00033e-08 1.72876e-05
104 Pt 4.21718 12.174 40.3301 2.23481e-08 -3.72199e-08 -3.51561e-08 2.52714e-05
105 Pt 7.02864 12.174 40.3301 3.2835e-13 -2.45053e-08 -6.79519e-08 2.35453e-05
106 Pt 9.8401 12.174 40.3301 -2.23504e-08 -3.72194e-08 -3.51542e-08 2.52711e-05
107 Pt 12.6516 12.174 40.3301 5.23141e-09 2.67031e-09 -7.00263e-08 1.72902e-05
108 Pt 15.463 12.174 40.3301 -1.65095e-11 -6.87211e-10 -7.085e-08 1.80315e-05
109 Pt 1.40573 0.811598 1.1476 4.94095e-09 2.89548e-09 7.3091e-09 5.09061e-06
110 Pt 4.21718 0.811598 1.1476 -4.39535e-10 -4.04698e-09 -2.45108e-10 1.50683e-06
111 Pt 7.02864 0.811598 1.1476 -9.0221e-15 -1.23182e-08 3.08551e-09 4.02568e-06
112 Pt 9.8401 0.811598 1.1476 4.39603e-10 -4.04732e-09 -2.45117e-10 1.50697e-06
113 Pt 12.6516 0.811598 1.1476 -4.94041e-09 2.89482e-09 7.30737e-09 5.08984e-06
114 Pt 15.463 0.811598 1.1476 7.99396e-15 -4.27181e-12 4.05893e-11 7.95725e-08
115 Pt 0 3.24639 1.1476 1.09043e-08 6.2931e-09 1.2771e-08 6.21751e-06
116 Pt 2.81146 3.24639 1.1476 2.11238e-08 2.02132e-08 4.29222e-08 -1.15328e-05
117 Pt 5.62291 3.24639 1.1476 1.61788e-07 3.56436e-07 4.30886e-07 -4.56511e-05
118 Pt 8.43437 3.24639 1.1476 -1.61789e-07 3.56434e-07 4.30883e-07 -4.56509e-05
119 Pt 11.2458 3.24639 1.1476 -2.11236e-08 2.02155e-08 4.29265e-08 -1.15334e-05
120 Pt 14.0573 3.24639 1.1476 -1.09033e-08 6.293e-09 1.27713e-08 6.21729e-06
121 Pt 1.40573 5.68118 1.1476 2.83459e-08 8.47666e-09 4.41699e-08 -1.17103e-05
122 Pt 4.21718 5.68118 1.1476 6.76193e-06 3.90742e-06 1.36026e-05 -0.000223505
123 Pt 7.02864 5.68118 1.1476 -3.41914e-13 -9.25678e-07 2.10656e-07 -7.42776e-05
124 Pt 9.8401 5.68118 1.1476 -6.76192e-06 3.90744e-06 1.36027e-05 -0.000223506
125 Pt 12.6516 5.68118 1.1476 -2.83468e-08 8.47561e-09 4.41671e-08 -1.17104e-05
126 Pt 15.463 5.68118 1.1476 -3.32081e-12 6.45777e-09 1.71062e-08 7.88235e-06
127 Pt 0 8.11598 1.1476 3.48163e-09 -6.77028e-10 2.07205e-09 -1.96411e-06
128 Pt 2.81146 8.11598 1.1476 3.9361e-07 -3.70906e-08 4.50493e-07 -4.63347e-05
129 Pt 5.62291 8.11598 1.1476 -8.0449e-07 4.63573e-07 2.10573e-07 -7.43378e-05
130 Pt 8.43437 8.11598 1.1476 8.04484e-07 4.63572e-07 2.10573e-07 -7.43376e-05
131 Pt 11.2458 8.11598 1.1476 -3.93619e-07 -3.70945e-08 4.50514e-07 -4.63357e-05
132 Pt 14.0573 8.11598 1.1476 -3.48106e-09 -6.77005e-10 2.07112e-09 -1.96375e-06
133 Pt 1.40573 10.5508 1.1476 2.95587e-09 -1.69287e-09 3.68032e-09 -3.24761e-06
134 Pt 4.21718 10.5508 1.1476 2.25437e-07 -3.23464e-07 4.44096e-07 -4.59809e-05
135 Pt 7.02864 10.5508 1.1476 -3.08328e-13 -7.81075e-06 1.35698e-05 -0.000223157
136 Pt 9.8401 10.5508 1.1476 -2.25437e-07 -3.23462e-07 4.44098e-07 -4.59809e-05
137 Pt 12.6516 10.5508 1.1476 -2.95604e-09 -1.69282e-09 3.6806e-09 -3.24795e-06
138 Pt 15.463 10.5508 1.1476 2.60813e-13 -3.05588e-10 9.14045e-10 1.93947e-06
139 Pt 0 12.9856 1.1476 4.223e-11 8.96541e-11 2.77666e-10 8.01304e-07
140 Pt 2.81146 12.9856 1.1476 1.12447e-09 -2.3092e-09 1.68498e-09 -1.69375e-06
141 Pt 5.62291 12.9856 1.1476 6.38173e-09 -2.39724e-08 3.45777e-08 -9.84293e-06
142 Pt 8.43437 12.9856 1.1476 -6.38176e-09 -2.39722e-08 3.45774e-08 -9.84286e-06
143 Pt 11.2458 12.9856 1.1476 -1.12462e-09 -2.3097e-09 1.68539e-09 -1.69407e-06
144 Pt 14.0573 12.9856 1.1476 -4.21901e-11 8.95838e-11 2.77419e-10 8.0069e-07
145 Pt 0 1.62319 3.4432 7.89755e-09 5.18636e-09 3.89006e-09 -1.60274e-06
146 Pt 2.81146 1.62319 3.4432 6.12916e-07 2.9981e-07 1.25522e-06 -7.10182e-05
147 Pt 5.62291 1.62319 3.4432 6.60431e-07 -1.06279e-06 1.62615e-06 -9.03253e-05
148 Pt 8.43437 1.62319 3.4432 -6.60433e-07 -1.0628e-06 1.62615e-06 -9.03252e-05
149 Pt 11.2458 1.62319 3.4432 -6.1293e-07 2.99807e-07 1.25522e-06 -7.10181e-05
150 Pt 14.0573 1.62319 3.4432 -7.86629e-09 5.164e-09 3.87127e-09 -1.59632e-06
151 Pt 1.40573 4.05799 3.4432 9.98824e-07 6.02515e-07 1.22319e-06 -8.04068e-05
152 Pt 4.21718 4.05799 3.4432 1.0379e-05 -1.18976e-06 1.86039e-05 0.000180478
153 Pt 7.02864 4.05799 3.4432 -2.61375e-12 0.000201028 0.000197526 0.000943231
154 Pt 9.8401 4.05799 3.4432 -1.03788e-05 -1.18984e-06 1.86032e-05 0.000180473
155 Pt 12.6516 4.05799 3.4432 -9.98763e-07 6.0242e-07 1.22291e-06 -8.03988e-05
156 Pt 15.463 4.05799 3.4432 5.11619e-14 1.50838e-07 2.11397e-07 -2.59262e-05
157 Pt 0 6.49278 3.4432 4.74827e-07 2.57831e-07 1.09476e-06 -6.63322e-05
158 Pt 2.81146 6.49278 3.4432 4.18898e-06 1.003e-05 1.94846e-05 0.000186265
159 Pt 5.62291 6.49278 3.4432 0.00999984 0.00577647 0.0118179 0.00708131
160 Pt 8.43437 6.49278 3.4432 -0.00999985 0.00577646 0.0118179 0.0070813
161 Pt 11.2458 6.49278 3.4432 -4.18866e-06 1.00309e-05 1.94865e-05 0.000186275
162 Pt 14.0573 6.49278 3.4432 -4.74788e-07 2.57883e-07 1.09489e-06 -6.63343e-05
163 Pt 1.40573 8.92757 3.4432 -8.35641e-08 4.36649e-07 4.36135e-07 -5.1473e-05
164 Pt 4.21718 8.92757 3.4432 0.000174232 -0.000101002 0.000201404 0.000951475
165 Pt 7.02864 8.92757 3.4432 -1.96203e-10 -0.0115464 0.0118107 0.00707885
166 Pt 9.8401 8.92757 3.4432 -0.000174231 -0.000101003 0.000201403 0.000951472
167 Pt 12.6516 8.92757 3.4432 8.35682e-08 4.36554e-07 4.36003e-07 -5.14659e-05
168 Pt 15.463 8.92757 3.4432 -7.79557e-11 -6.46082e-08 7.59172e-07 -5.39448e-05
169 Pt 0 11.3624 3.4432 9.23427e-08 -6.23865e-08 1.0893e-07 -2.042e-05
170 Pt 2.81146 11.3624 3.4432 -3.80021e-07 -1.33496e-07 5.04291e-07 -5.46019e-05
171 Pt 5.62291 11.3624 3.4432 -6.23812e-06 -8.22361e-06 1.74574e-05 0.000172454
172 Pt 8.43437 11.3624 3.4432 6.23806e-06 -8.22355e-06 1.74573e-05 0.000172453
173 Pt 11.2458 11.3624 3.4432 3.79992e-07 -1.33502e-07 5.04265e-07 -5.46011e-05
174 Pt 14.0573 11.3624 3.4432 -9.23103e-08 -6.23691e-08 1.08845e-07 -2.04124e-05
175 Pt 1.40573 13.7972 3.4432 1.72338e-07 -1.27684e-07 1.96772e-07 -2.5806e-05
176 Pt 4.21718 13.7972 3.4432 6.61529e-07 -2.57966e-07 2.70763e-06 -0.000105583
177 Pt 7.02864 13.7972 3.4432 -2.77964e-13 -1.21682e-06 3.88119e-06 -0.000138576
178 Pt 9.8401 13.7972 3.4432 -6.61524e-07 -2.57959e-07 2.70766e-06 -0.000105584
179 Pt 12.6516 13.7972 3.4432 -1.72323e-07 -1.27661e-07 1.96727e-07 -2.58034e-05
180 Pt 15.463 13.7972 3.4432 -1.12532e-11 1.45774e-08 4.72534e-08 1.83698e-05
181 Pt 0 0 5.7387 -1.69251e-05 -1.6733e-08 7.17493e-05 -0.000526498
182 Pt 2.81146 0 5.7387 2.90345e-05 -9.89522e-10 4.80927e-05 0.000396434
183 Pt 5.62291 0 5.7387 7.97755e-05 2.32379e-07 0.000674992 0.00157129
184 Pt 8.43437 0 5.7387 -7.97759e-05 2.32379e-07 0.000674992 0.00157129
185 Pt 11.2458 0 5.7387 -2.90348e-05 -9.94182e-10 4.80948e-05 0.000396443
186 Pt 14.0573 0 5.7387 1.69245e-05 -1.67241e-08 7.17483e-05 -0.000526488
187 Pt 1.40573 2.43479 5.7387 3.06113e-05 2.24641e-05 3.14696e-05 0.000332574
188 Pt 4.21718 2.43479 5.7387 0.000497521 0.000717469 0.00154542 0.00262847
189 Pt 7.02864 2.43479 5.7387 -1.24324e-10 0.000810159 0.00293769 0.00354253
190 Pt 9.8401 2.43479 5.7387 -0.000497519 0.000717466 0.00154542 0.00262847
191 Pt 12.6516 2.43479 5.7387 -3.06101e-05 2.2464e-05 3.14673e-05 0.000332573
192 Pt 15.463 2.43479 5.7387 2.32548e-09 -1.23557e-05 4.79514e-05 -0.00043584
193 Pt 0 4.86959 5.7387 3.46839e-05 1.76016e-05 4.71992e-05 0.000409052
194 Pt 2.81146 4.86959 5.7387 0.000701273 0.00038989 0.00228725 0.00313202
195 Pt 5.62291 4.86959 5.7387 0.0121999 0.0216272 0.0128118 -0.00718605
196 Pt 8.43437 4.86959 5.7387 -0.0121999 0.0216272 0.0128118 -0.00718605
197 Pt 11.2458 4.86959 5.7387 -0.000701258 0.000389897 0.00228729 0.00313205
198 Pt 14.0573 4.86959 5.7387 -3.46848e-05 1.75999e-05 4.71984e-05 0.000409054
199 Pt 1.40573 7.30438 5.7387 0.000811213 3.51455e-06 0.0012613 0.00239943
200 Pt 4.21718 7.30438 5.7387 0.0250275 -0.00019744 0.0130952 -0.00726146
201 Pt 7.02864 7.30438 5.7387 4.29031e-08 -4.94977e-07 23.1435 -0.250558
202 Pt 9.8401 7.30438 5.7387 -0.0250275 -0.000197441 0.0130952 -0.00726145
203 Pt 12.6516 7.30438 5.7387 -0.000811194 3.51427e-06 0.00126124 0.00239937
204 Pt 15.463 7.30438 5.7387 5.24104e-10 3.04118e-10 3.21043e-05 0.000319994
205 Pt 0 9.73917 5.7387 3.45488e-05 -1.77836e-05 4.7196e-05 0.000408101
206 Pt 2.81146 9.73917 5.7387 0.000731156 -0.000407 0.0022993 0.00316652
207 Pt 5.62291 9.73917 5.7387 0.0125386 -0.0214321 0.0128119 -0.00718614
208 Pt 8.43437 9.73917 5.7387 -0.0125386 -0.0214321 0.0128119 -0.00718615
209 Pt 11.2458 9.73917 5.7387 -0.000731142 -0.000407007 0.00229933 0.00316655
210 Pt 14.0573 9.73917 5.7387 -3.45497e-05 -1.7782e-05 4.71953e-05 0.000408103
211 Pt 1.40573 12.174 5.7387 3.05958e-05 -2.22935e-05 3.14606e-05 0.000331322
212 Pt 4.21718 12.174 5.7387 0.000490551 -0.000721074 0.0015454 0.00262866
213 Pt 7.02864 12.174 5.7387 -1.36115e-10 -0.000773741 0.00292363 0.00350723
214 Pt 9.8401 12.174 5.7387 -0.00049055 -0.000721071 0.00154539 0.00262866
215 Pt 12.6516 12.174 5.7387 -3.05946e-05 -2.22934e-05 3.14583e-05 0.000331321
216 Pt 15.463 12.174 5.7387 2.3226e-09 1.23906e-05 4.79705e-05 -0.000437349
217 K 7.02864 7.30438 7.3387 -7.55391e-08 -3.77397e-06 135.799 1
218 F 7.02864 7.30438 8.7387 -2.38527e-08 1.02239e-06 -158.631 -1
