
     Program BANDS v.7.0 starts on 13Nov2023 at 17:54: 6

     This program is part of the open-source Quantum ESPRESSO suite
     for quantum simulation of materials; please cite
         "P. Giannozzi et al., J. Phys.:Condens. Matter 21 395502 (2009);
         "P. Giannozzi et al., J. Phys.:Condens. Matter 29 465901 (2017);
         "P. Giannozzi et al., J. Chem. Phys. 152 154105 (2020);
          URL http://www.quantum-espresso.org",
     in publications or presentations arising from this work. More details at
     http://www.quantum-espresso.org/quote

     Parallel version (MPI & OpenMP), running on       1 processor cores
     Number of MPI processes:                 1
     Threads/MPI process:                     1

     MPI processes distributed on     1 nodes
     171 MiB available memory on the printing compute node when the environment starts


     Reading xml data from directory:

     /home/demo/data/demo-default/band-structure-Py5xwkYHJGC89suoG/outdir/__prefix__.save/

     IMPORTANT: XC functional enforced from input :
     Exchange-correlation= PBE
                           (   1   4   3   4   0   0   0)
     Any further DFT definition will be discarded
     Please, verify this is what you really want


     G-vector sticks info
     --------------------
     sticks:   dense  smooth     PW     G-vecs:    dense   smooth      PW
     Sum         745     583    187                13323     9409    1639

     Using Slab Decomposition

     Reading collected, re-writing distributed wavefunctions
     high-symmetry point:  0.0000 0.0000 0.0000   x coordinate   0.0000
     high-symmetry point:  0.2887-0.4082 0.5000   x coordinate   0.7071
     high-symmetry point:  0.1443-0.2041 0.7500   x coordinate   1.0607
     high-symmetry point:  0.0000-0.0000 0.7500   x coordinate   1.3107
     high-symmetry point:  0.0000 0.0000 0.0000   x coordinate   2.0607
     high-symmetry point:  0.2887 0.2041 0.5000   x coordinate   2.6730
     high-symmetry point:  0.3608-0.2041 0.6250   x coordinate   3.1060
     high-symmetry point:  0.1443-0.2041 0.7500   x coordinate   3.3560
     high-symmetry point:  0.2887 0.2041 0.5000   x coordinate   3.8560
     high-symmetry point:  0.3608-0.2041 0.6250   x coordinate   4.2891
     high-symmetry point:  0.2887-0.4082 0.5000   x coordinate   4.5391

     Plottable bands (eV) written to file /home/demo/data/demo-default/band-structure-Py5xwkYHJGC89suoG/bands.dat.gnu
     Bands written to file /home/demo/data/demo-default/band-structure-Py5xwkYHJGC89suoG/bands.dat

 **************************************************************************

                    xk=(   0.00000,   0.00000,   0.00000  )

     point group C_2h (2/m)
     there are  4 classes
     the character table:

       E     C2    i     s_h
A_g    1.00  1.00  1.00  1.00
B_g    1.00 -1.00  1.00 -1.00
A_u    1.00  1.00 -1.00 -1.00
B_u    1.00 -1.00 -1.00  1.00

     the symmetry operations in each class and the name of the first element:

     E        1

     C2       2

     i        3

     s_h      4


     Band symmetry, C_2h (2/m)  point group:

     e(  1 -  1) =     -5.59663  eV     1   --> A_g
     e(  2 -  4) =      6.27193  eV     3   -->   2 A_g
     e(  2 -  4) =      6.27193  eV     3   --> B_g
     e(  5 -  7) =      8.71293  eV     3   --> A_u
     e(  5 -  7) =      8.71293  eV     3   -->   2 B_u
     e(  8 -  8) =      9.41870  eV     1   --> B_u

 **************************************************************************

 **************************************************************************

                    xk=(   0.02887,  -0.04082,   0.05000  )

     point group C_1 (1)
     there are  1 classes
     the character table:

       E
A      1.00

     the symmetry operations in each class and the name of the first element:

     E        1


     Band symmetry, C_1 (1)     point group:

     e(  1 -  1) =     -5.55347  eV     1   --> A
     e(  2 -  2) =      5.98333  eV     1   --> A
     e(  3 -  4) =      6.09120  eV     2   -->   2 A
     e(  5 -  5) =      8.61182  eV     1   --> A
     e(  6 -  7) =      8.94701  eV     2   -->   2 A
     e(  8 -  8) =      9.69715  eV     1   --> A

 **************************************************************************

 **************************************************************************

                    xk=(   0.05774,  -0.08165,   0.10000  )

     Band symmetry, C_1 (1)     point group:

     e(  1 -  1) =     -5.42423  eV     1   --> A
     e(  2 -  2) =      5.31558  eV     1   --> A
     e(  3 -  4) =      5.68418  eV     2   -->   2 A
     e(  5 -  5) =      8.34868  eV     1   --> A
     e(  6 -  7) =      9.51299  eV     2   -->   2 A
     e(  8 -  8) =     10.26559  eV     1   --> A

 **************************************************************************

 **************************************************************************

                    xk=(   0.08660,  -0.12247,   0.15000  )

     Band symmetry, C_1 (1)     point group:

     e(  1 -  1) =     -5.20961  eV     1   --> A
     e(  2 -  2) =      4.50044  eV     1   --> A
     e(  3 -  4) =      5.21865  eV     2   -->   2 A
     e(  5 -  5) =      8.00449  eV     1   --> A
     e(  6 -  7) =     10.24017  eV     2   -->   2 A
     e(  8 -  8) =     10.51973  eV     1   --> A

 **************************************************************************

 **************************************************************************

                    xk=(   0.11547,  -0.16330,   0.20000  )

     Band symmetry, C_1 (1)     point group:

     e(  1 -  1) =     -4.91085  eV     1   --> A
     e(  2 -  2) =      3.63195  eV     1   --> A
     e(  3 -  4) =      4.77022  eV     2   -->   2 A
     e(  5 -  5) =      7.64858  eV     1   --> A
     e(  6 -  6) =     10.03496  eV     1   --> A
     e(  7 -  8) =     11.04908  eV     2   -->   2 A

 **************************************************************************

 **************************************************************************

                    xk=(   0.14434,  -0.20412,   0.25000  )

     Band symmetry, C_1 (1)     point group:

     e(  1 -  1) =     -4.52975  eV     1   --> A
     e(  2 -  2) =      2.74445  eV     1   --> A
     e(  3 -  4) =      4.36976  eV     2   -->   2 A
     e(  5 -  5) =      7.32617  eV     1   --> A
     e(  6 -  6) =      9.30187  eV     1   --> A
     e(  7 -  8) =     11.90531  eV     2   -->   2 A

 **************************************************************************

 **************************************************************************

                    xk=(   0.17321,  -0.24495,   0.30000  )

     Band symmetry, C_1 (1)     point group:

     e(  1 -  1) =     -4.06882  eV     1   --> A
     e(  2 -  2) =      1.85402  eV     1   --> A
     e(  3 -  4) =      4.03160  eV     2   -->   2 A
     e(  5 -  5) =      7.06507  eV     1   --> A
     e(  6 -  6) =      8.59874  eV     1   --> A
     e(  7 -  8) =     12.79232  eV     2   -->   2 A

 **************************************************************************

 **************************************************************************

                    xk=(   0.20207,  -0.28577,   0.35000  )

     Band symmetry, C_1 (1)     point group:

     e(  1 -  1) =     -3.53134  eV     1   --> A
     e(  2 -  2) =      0.97233  eV     1   --> A
     e(  3 -  4) =      3.76335  eV     2   -->   2 A
     e(  5 -  5) =      6.88307  eV     1   --> A
     e(  6 -  6) =      7.99640  eV     1   --> A
     e(  7 -  8) =     13.70164  eV     2   -->   2 A

 **************************************************************************

 **************************************************************************

                    xk=(   0.23094,  -0.32660,   0.40000  )

     Band symmetry, C_1 (1)     point group:

     e(  1 -  1) =     -2.92158  eV     1   --> A
     e(  2 -  2) =      0.11058  eV     1   --> A
     e(  3 -  4) =      3.56932  eV     2   -->   2 A
     e(  5 -  5) =      6.79254  eV     1   --> A
     e(  6 -  6) =      7.51486  eV     1   --> A
     e(  7 -  8) =     14.62611  eV     2   -->   2 A

 **************************************************************************

 **************************************************************************

                    xk=(   0.25981,  -0.36742,   0.45000  )

     Band symmetry, C_1 (1)     point group:

     e(  1 -  1) =     -2.24499  eV     1   --> A
     e(  2 -  2) =     -0.71992  eV     1   --> A
     e(  3 -  4) =      3.45203  eV     2   -->   2 A
     e(  5 -  5) =      6.80299  eV     1   --> A
     e(  6 -  6) =      7.15782  eV     1   --> A
     e(  7 -  8) =     15.53976  eV     2   -->   2 A

 **************************************************************************

 **************************************************************************

                    xk=(   0.28868,  -0.40825,   0.50000  )

     zone border point and non-symmorphic group
     symmetry decomposition not available

 **************************************************************************

 **************************************************************************

                    xk=(   0.27424,  -0.38784,   0.52500  )

     point group C_1 (1)
     there are  1 classes
     the character table:

       E
A      1.00

     the symmetry operations in each class and the name of the first element:

     E        1


     Band symmetry, C_1 (1)     point group:

     e(  1 -  2) =     -1.50477  eV     2   -->   2 A
     e(  3 -  4) =      3.38014  eV     2   -->   2 A
     e(  5 -  6) =      6.98236  eV     2   -->   2 A
     e(  7 -  8) =     16.05075  eV     2   -->   2 A

 **************************************************************************

 **************************************************************************

                    xk=(   0.25981,  -0.36742,   0.55000  )

     Band symmetry, C_1 (1)     point group:

     e(  1 -  2) =     -1.49428  eV     2   -->   2 A
     e(  3 -  4) =      3.28957  eV     2   -->   2 A
     e(  5 -  6) =      7.15497  eV     2   -->   2 A
     e(  7 -  8) =     15.72032  eV     2   -->   2 A

 **************************************************************************

 **************************************************************************

                    xk=(   0.24537,  -0.34701,   0.57500  )

     Band symmetry, C_1 (1)     point group:

     e(  1 -  2) =     -1.47770  eV     2   -->   2 A
     e(  3 -  4) =      3.15890  eV     2   -->   2 A
     e(  5 -  6) =      7.42295  eV     2   -->   2 A
     e(  7 -  8) =     15.20082  eV     2   -->   2 A

 **************************************************************************

 **************************************************************************

                    xk=(   0.23094,  -0.32660,   0.60000  )

     Band symmetry, C_1 (1)     point group:

     e(  1 -  2) =     -1.45633  eV     2   -->   2 A
     e(  3 -  4) =      3.00830  eV     2   -->   2 A
     e(  5 -  6) =      7.76692  eV     2   -->   2 A
     e(  7 -  8) =     14.59474  eV     2   -->   2 A

 **************************************************************************

 **************************************************************************

                    xk=(   0.21651,  -0.30619,   0.62500  )

     Band symmetry, C_1 (1)     point group:

     e(  1 -  2) =     -1.43200  eV     2   -->   2 A
     e(  3 -  4) =      2.85526  eV     2   -->   2 A
     e(  5 -  6) =      8.17040  eV     2   -->   2 A
     e(  7 -  8) =     13.95822  eV     2   -->   2 A

 **************************************************************************

 **************************************************************************

                    xk=(   0.20207,  -0.28577,   0.65000  )

     Band symmetry, C_1 (1)     point group:

     e(  1 -  2) =     -1.40694  eV     2   -->   2 A
     e(  3 -  4) =      2.71339  eV     2   -->   2 A
     e(  5 -  6) =      8.62068  eV     2   -->   2 A
     e(  7 -  8) =     13.31537  eV     2   -->   2 A

 **************************************************************************

 **************************************************************************

                    xk=(   0.18764,  -0.26536,   0.67500  )

     Band symmetry, C_1 (1)     point group:

     e(  1 -  2) =     -1.38367  eV     2   -->   2 A
     e(  3 -  4) =      2.59296  eV     2   -->   2 A
     e(  5 -  6) =      9.10771  eV     2   -->   2 A
     e(  7 -  8) =     12.67877  eV     2   -->   2 A

 **************************************************************************

 **************************************************************************

                    xk=(   0.17321,  -0.24495,   0.70000  )

     Band symmetry, C_1 (1)     point group:

     e(  1 -  2) =     -1.36472  eV     2   -->   2 A
     e(  3 -  4) =      2.50157  eV     2   -->   2 A
     e(  5 -  6) =      9.62126  eV     2   -->   2 A
     e(  7 -  8) =     12.05878  eV     2   -->   2 A

 **************************************************************************

 **************************************************************************

                    xk=(   0.15877,  -0.22454,   0.72500  )

     Band symmetry, C_1 (1)     point group:

     e(  1 -  2) =     -1.35232  eV     2   -->   2 A
     e(  3 -  4) =      2.44457  eV     2   -->   2 A
     e(  5 -  6) =     10.13928  eV     2   -->   2 A
     e(  7 -  8) =     11.47711  eV     2   -->   2 A

 **************************************************************************

 **************************************************************************

                    xk=(   0.14434,  -0.20412,   0.75000  )

     Band symmetry, C_1 (1)     point group:

     e(  1 -  2) =     -1.34800  eV     2   -->   2 A
     e(  3 -  4) =      2.42520  eV     2   -->   2 A
     e(  5 -  6) =     10.48315  eV     2   -->   2 A
     e(  7 -  8) =     11.11206  eV     2   -->   2 A

 **************************************************************************

 **************************************************************************

                    xk=(   0.12990,  -0.18371,   0.75000  )

     Band symmetry, C_1 (1)     point group:

     e(  1 -  1) =     -1.45598  eV     1   --> A
     e(  2 -  2) =     -1.24370  eV     1   --> A
     e(  3 -  3) =      2.34335  eV     1   --> A
     e(  4 -  4) =      2.52630  eV     1   --> A
     e(  5 -  5) =     10.19827  eV     1   --> A
     e(  6 -  6) =     10.52782  eV     1   --> A
     e(  7 -  7) =     11.22926  eV     1   --> A
     e(  8 -  8) =     11.25695  eV     1   --> A

 **************************************************************************

 **************************************************************************

                    xk=(   0.11547,  -0.16330,   0.75000  )

     Band symmetry, C_1 (1)     point group:

     e(  1 -  1) =     -1.55280  eV     1   --> A
     e(  2 -  2) =     -1.15777  eV     1   --> A
     e(  3 -  3) =      2.26907  eV     1   --> A
     e(  4 -  4) =      2.65704  eV     1   --> A
     e(  5 -  5) =      9.76889  eV     1   --> A
     e(  6 -  6) =     10.51649  eV     1   --> A
     e(  7 -  7) =     11.47428  eV     1   --> A
     e(  8 -  8) =     11.51914  eV     1   --> A

 **************************************************************************

 **************************************************************************

                    xk=(   0.10104,  -0.14289,   0.75000  )

     Band symmetry, C_1 (1)     point group:

     e(  1 -  1) =     -1.63836  eV     1   --> A
     e(  2 -  2) =     -1.08920  eV     1   --> A
     e(  3 -  3) =      2.20274  eV     1   --> A
     e(  4 -  4) =      2.81368  eV     1   --> A
     e(  5 -  5) =      9.33080  eV     1   --> A
     e(  6 -  6) =     10.48312  eV     1   --> A
     e(  7 -  7) =     11.72923  eV     1   --> A
     e(  8 -  8) =     11.84860  eV     1   --> A

 **************************************************************************

 **************************************************************************

                    xk=(   0.08660,  -0.12247,   0.75000  )

     Band symmetry, C_1 (1)     point group:

     e(  1 -  1) =     -1.71263  eV     1   --> A
     e(  2 -  2) =     -1.03619  eV     1   --> A
     e(  3 -  3) =      2.14469  eV     1   --> A
     e(  4 -  4) =      2.99049  eV     1   --> A
     e(  5 -  5) =      8.90927  eV     1   --> A
     e(  6 -  6) =     10.44425  eV     1   --> A
     e(  7 -  7) =     12.00420  eV     1   --> A
     e(  8 -  8) =     12.19602  eV     1   --> A

 **************************************************************************

 **************************************************************************

                    xk=(   0.07217,  -0.10206,   0.75000  )

     Band symmetry, C_1 (1)     point group:

     e(  1 -  1) =     -1.77554  eV     1   --> A
     e(  2 -  2) =     -0.99647  eV     1   --> A
     e(  3 -  3) =      2.09516  eV     1   --> A
     e(  4 -  4) =      3.17960  eV     1   --> A
     e(  5 -  5) =      8.51540  eV     1   --> A
     e(  6 -  6) =     10.40683  eV     1   --> A
     e(  7 -  7) =     12.29084  eV     1   --> A
     e(  8 -  8) =     12.55548  eV     1   --> A

 **************************************************************************

 **************************************************************************

                    xk=(   0.05774,  -0.08165,   0.75000  )

     Band symmetry, C_1 (1)     point group:

     e(  1 -  1) =     -1.82706  eV     1   --> A
     e(  2 -  2) =     -0.96770  eV     1   --> A
     e(  3 -  3) =      2.05437  eV     1   --> A
     e(  4 -  4) =      3.37056  eV     1   --> A
     e(  5 -  5) =      8.15934  eV     1   --> A
     e(  6 -  6) =     10.37404  eV     1   --> A
     e(  7 -  7) =     12.58403  eV     1   --> A
     e(  8 -  8) =     12.92414  eV     1   --> A

 **************************************************************************

 **************************************************************************

                    xk=(   0.04330,  -0.06124,   0.75000  )

     Band symmetry, C_1 (1)     point group:

     e(  1 -  1) =     -1.86717  eV     1   --> A
     e(  2 -  2) =     -0.94772  eV     1   --> A
     e(  3 -  3) =      2.02249  eV     1   --> A
     e(  4 -  4) =      3.54972  eV     1   --> A
     e(  5 -  5) =      7.85357  eV     1   --> A
     e(  6 -  6) =     10.34749  eV     1   --> A
     e(  7 -  7) =     12.87888  eV     1   --> A
     e(  8 -  8) =     13.29967  eV     1   --> A

 **************************************************************************

 **************************************************************************

                    xk=(   0.02887,  -0.04082,   0.75000  )

     Band symmetry, C_1 (1)     point group:

     e(  1 -  1) =     -1.89583  eV     1   --> A
     e(  2 -  2) =     -0.93477  eV     1   --> A
     e(  3 -  3) =      1.99963  eV     1   --> A
     e(  4 -  4) =      3.69986  eV     1   --> A
     e(  5 -  5) =      7.61402  eV     1   --> A
     e(  6 -  6) =     10.32806  eV     1   --> A
     e(  7 -  7) =     13.16738  eV     1   --> A
     e(  8 -  8) =     13.67862  eV     1   --> A

 **************************************************************************

 **************************************************************************

                    xk=(   0.01443,  -0.02041,   0.75000  )

     Band symmetry, C_1 (1)     point group:

     e(  1 -  1) =     -1.91304  eV     1   --> A
     e(  2 -  2) =     -0.92752  eV     1   --> A
     e(  3 -  3) =      1.98588  eV     1   --> A
     e(  4 -  4) =      3.80151  eV     1   --> A
     e(  5 -  5) =      7.45916  eV     1   --> A
     e(  6 -  6) =     10.31623  eV     1   --> A
     e(  7 -  7) =     13.42627  eV     1   --> A
     e(  8 -  8) =     14.05023  eV     1   --> A

 **************************************************************************

 **************************************************************************

                    xk=(   0.00000,  -0.00000,   0.75000  )

     point group C_2  (2)
     there are  2 classes
     the character table:

       E     C2
A      1.00  1.00
B      1.00 -1.00

     the symmetry operations in each class and the name of the first element:

     E        1

     C2       2


     Band symmetry, C_2  (2)    point group:

     e(  1 -  1) =     -1.91877  eV     1   --> A
     e(  2 -  2) =     -0.92520  eV     1   --> B
     e(  3 -  3) =      1.98129  eV     1   --> A
     e(  4 -  4) =      3.83771  eV     1   --> A
     e(  5 -  5) =      7.40529  eV     1   --> B
     e(  6 -  6) =     10.31227  eV     1   --> A
     e(  7 -  7) =     13.55813  eV     1   --> B
     e(  8 -  8) =     14.17424  eV     1   --> A

 **************************************************************************

 **************************************************************************

                    xk=(   0.00000,   0.00000,   0.67500  )

     Band symmetry, C_2  (2)    point group:

     e(  1 -  1) =     -2.32559  eV     1   --> A
     e(  2 -  2) =     -0.52484  eV     1   --> B
     e(  3 -  3) =      1.86699  eV     1   --> A
     e(  4 -  4) =      4.11546  eV     1   --> A
     e(  5 -  5) =      7.72049  eV     1   --> B
     e(  6 -  6) =     11.83871  eV     1   --> A
     e(  7 -  7) =     12.67332  eV     1   --> B
     e(  8 -  8) =     13.29029  eV     1   --> A

 **************************************************************************

 **************************************************************************

                    xk=(   0.00000,  -0.00000,   0.60000  )

     Band symmetry, C_2  (2)    point group:

     e(  1 -  1) =     -2.84295  eV     1   --> A
     e(  2 -  2) =     -0.02252  eV     1   --> B
     e(  3 -  3) =      2.01699  eV     1   --> A
     e(  4 -  4) =      4.44509  eV     1   --> A
     e(  5 -  5) =      8.09092  eV     1   --> B
     e(  6 -  6) =     11.86210  eV     1   --> B
     e(  7 -  7) =     12.27696  eV     1   --> A
     e(  8 -  8) =     12.94125  eV     1   --> B

 **************************************************************************

 **************************************************************************

                    xk=(   0.00000,  -0.00000,   0.52500  )

     Band symmetry, C_2  (2)    point group:

     e(  1 -  1) =     -3.39853  eV     1   --> A
     e(  2 -  2) =      0.57973  eV     1   --> B
     e(  3 -  3) =      2.37014  eV     1   --> A
     e(  4 -  4) =      4.80837  eV     1   --> A
     e(  5 -  5) =      8.48544  eV     1   --> B
     e(  6 -  6) =     11.13527  eV     1   --> B
     e(  7 -  7) =     11.57149  eV     1   --> A
     e(  8 -  8) =     12.40047  eV     1   --> B

 **************************************************************************

 **************************************************************************

                    xk=(   0.00000,   0.00000,   0.45000  )

     Band symmetry, C_2  (2)    point group:

     e(  1 -  1) =     -3.93606  eV     1   --> A
     e(  2 -  2) =      1.27902  eV     1   --> B
     e(  3 -  3) =      2.87124  eV     1   --> A
     e(  4 -  4) =      5.17988  eV     1   --> A
     e(  5 -  5) =      8.84883  eV     1   --> B
     e(  6 -  6) =     10.49882  eV     1   --> B
     e(  7 -  7) =     10.91331  eV     1   --> A
     e(  8 -  8) =     12.01226  eV     1   --> B

 **************************************************************************

 **************************************************************************

                    xk=(   0.00000,  -0.00000,   0.37500  )

     Band symmetry, C_2  (2)    point group:

     e(  1 -  1) =     -4.42126  eV     1   --> A
     e(  2 -  2) =      2.07096  eV     1   --> B
     e(  3 -  3) =      3.47913  eV     1   --> A
     e(  4 -  4) =      5.52798  eV     1   --> A
     e(  5 -  5) =      9.10079  eV     1   --> B
     e(  6 -  6) =      9.95639  eV     1   --> B
     e(  7 -  7) =     10.33727  eV     1   --> A
     e(  8 -  8) =     11.82085  eV     1   --> B

 **************************************************************************

 **************************************************************************

                    xk=(   0.00000,   0.00000,   0.30000  )

     Band symmetry, C_2  (2)    point group:

     e(  1 -  1) =     -4.83439  eV     1   --> A
     e(  2 -  2) =      2.94828  eV     1   --> B
     e(  3 -  3) =      4.15774  eV     1   --> A
     e(  4 -  4) =      5.82089  eV     1   --> A
     e(  5 -  5) =      9.18572  eV     1   --> B
     e(  6 -  6) =      9.51031  eV     1   --> B
     e(  7 -  7) =      9.84355  eV     1   --> A
     e(  8 -  8) =     11.77373  eV     1   --> B

 **************************************************************************

 **************************************************************************

                    xk=(   0.00000,   0.00000,   0.22500  )

     Band symmetry, C_2  (2)    point group:

     e(  1 -  1) =     -5.16396  eV     1   --> A
     e(  2 -  2) =      3.89695  eV     1   --> B
     e(  3 -  3) =      4.86457  eV     1   --> A
     e(  4 -  4) =      6.03771  eV     1   --> A
     e(  5 -  5) =      9.13819  eV     1   --> B
     e(  6 -  6) =      9.16209  eV     1   --> B
     e(  7 -  7) =      9.42659  eV     1   --> A
     e(  8 -  8) =     11.52050  eV     1   --> B

 **************************************************************************

 **************************************************************************

                    xk=(   0.00000,  -0.00000,   0.15000  )

     Band symmetry, C_2  (2)    point group:

     e(  1 -  1) =     -5.40319  eV     1   --> A
     e(  2 -  2) =      4.88377  eV     1   --> B
     e(  3 -  3) =      5.53548  eV     1   --> A
     e(  4 -  4) =      6.17639  eV     1   --> A
     e(  5 -  5) =      8.91275  eV     1   --> B
     e(  6 -  6) =      9.03155  eV     1   --> B
     e(  7 -  7) =      9.08093  eV     1   --> A
     e(  8 -  8) =     10.70803  eV     1   --> B

 **************************************************************************

 **************************************************************************

                    xk=(   0.00000,  -0.00000,   0.07500  )

     Band symmetry, C_2  (2)    point group:

     e(  1 -  1) =     -5.54811  eV     1   --> A
     e(  2 -  2) =      5.80444  eV     1   --> B
     e(  3 -  3) =      6.06082  eV     1   --> A
     e(  4 -  4) =      6.24959  eV     1   --> A
     e(  5 -  5) =      8.76291  eV     1   --> B
     e(  6 -  6) =      8.82035  eV     1   --> A
     e(  7 -  7) =      8.88098  eV     1   --> B
     e(  8 -  8) =      9.78907  eV     1   --> B

 **************************************************************************

 **************************************************************************

                    xk=(   0.00000,   0.00000,   0.00000  )

     point group C_2h (2/m)
     there are  4 classes
     the character table:

       E     C2    i     s_h
A_g    1.00  1.00  1.00  1.00
B_g    1.00 -1.00  1.00 -1.00
A_u    1.00  1.00 -1.00 -1.00
B_u    1.00 -1.00 -1.00  1.00

     the symmetry operations in each class and the name of the first element:

     E        1

     C2       2

     i        3

     s_h      4


     Band symmetry, C_2h (2/m)  point group:

     e(  1 -  1) =     -5.59663  eV     1   --> A_g
     e(  2 -  4) =      6.27193  eV     3   -->   2 A_g
     e(  2 -  4) =      6.27193  eV     3   --> B_g
     e(  5 -  7) =      8.71293  eV     3   --> A_u
     e(  5 -  7) =      8.71293  eV     3   -->   2 B_u
     e(  8 -  8) =      9.41870  eV     1   --> B_u

 **************************************************************************

 **************************************************************************

                    xk=(   0.02887,   0.02041,   0.05000  )

     point group C_1 (1)
     there are  1 classes
     the character table:

       E
A      1.00

     the symmetry operations in each class and the name of the first element:

     E        1


     Band symmetry, C_1 (1)     point group:

     e(  1 -  1) =     -5.56428  eV     1   --> A
     e(  2 -  2) =      5.90440  eV     1   --> A
     e(  3 -  4) =      6.21499  eV     2   -->   2 A
     e(  5 -  5) =      8.77366  eV     1   --> A
     e(  6 -  7) =      8.79503  eV     2   -->   2 A
     e(  8 -  8) =      9.67192  eV     1   --> A

 **************************************************************************

 **************************************************************************

                    xk=(   0.05774,   0.04082,   0.10000  )

     Band symmetry, C_1 (1)     point group:

     e(  1 -  1) =     -5.46755  eV     1   --> A
     e(  2 -  2) =      5.10913  eV     1   --> A
     e(  3 -  4) =      6.06849  eV     2   -->   2 A
     e(  5 -  5) =      8.71829  eV     1   --> A
     e(  6 -  7) =      9.00794  eV     2   -->   2 A
     e(  8 -  8) =     10.37679  eV     1   --> A

 **************************************************************************

 **************************************************************************

                    xk=(   0.08660,   0.06124,   0.15000  )

     Band symmetry, C_1 (1)     point group:

     e(  1 -  1) =     -5.30757  eV     1   --> A
     e(  2 -  2) =      4.18963  eV     1   --> A
     e(  3 -  4) =      5.87898  eV     2   -->   2 A
     e(  5 -  5) =      8.55899  eV     1   --> A
     e(  6 -  7) =      9.27631  eV     2   -->   2 A
     e(  8 -  8) =     11.25229  eV     1   --> A

 **************************************************************************

 **************************************************************************

                    xk=(   0.11547,   0.08165,   0.20000  )

     Band symmetry, C_1 (1)     point group:

     e(  1 -  1) =     -5.08649  eV     1   --> A
     e(  2 -  2) =      3.25336  eV     1   --> A
     e(  3 -  4) =      5.68300  eV     2   -->   2 A
     e(  5 -  5) =      8.36828  eV     1   --> A
     e(  6 -  7) =      9.51548  eV     2   -->   2 A
     e(  8 -  8) =     12.15472  eV     1   --> A

 **************************************************************************

 **************************************************************************

                    xk=(   0.14434,   0.10206,   0.25000  )

     Band symmetry, C_1 (1)     point group:

     e(  1 -  1) =     -4.80822  eV     1   --> A
     e(  2 -  2) =      2.34317  eV     1   --> A
     e(  3 -  4) =      5.50189  eV     2   -->   2 A
     e(  5 -  5) =      8.18059  eV     1   --> A
     e(  6 -  7) =      9.65694  eV     2   -->   2 A
     e(  8 -  8) =     13.02564  eV     1   --> A

 **************************************************************************

 **************************************************************************

                    xk=(   0.17321,   0.12247,   0.30000  )

     Band symmetry, C_1 (1)     point group:

     e(  1 -  1) =     -4.47985  eV     1   --> A
     e(  2 -  2) =      1.48416  eV     1   --> A
     e(  3 -  4) =      5.34690  eV     2   -->   2 A
     e(  5 -  5) =      8.01398  eV     1   --> A
     e(  6 -  7) =      9.68487  eV     2   -->   2 A
     e(  8 -  8) =     13.72930  eV     1   --> A

 **************************************************************************

 **************************************************************************

                    xk=(   0.20207,   0.14289,   0.35000  )

     Band symmetry, C_1 (1)     point group:

     e(  1 -  1) =     -4.11525  eV     1   --> A
     e(  2 -  2) =      0.69991  eV     1   --> A
     e(  3 -  4) =      5.22362  eV     2   -->   2 A
     e(  5 -  5) =      7.87827  eV     1   --> A
     e(  6 -  7) =      9.63831  eV     2   -->   2 A
     e(  8 -  8) =     14.05026  eV     1   --> A

 **************************************************************************

 **************************************************************************

                    xk=(   0.23094,   0.16330,   0.40000  )

     Band symmetry, C_1 (1)     point group:

     e(  1 -  1) =     -3.74392  eV     1   --> A
     e(  2 -  2) =      0.02560  eV     1   --> A
     e(  3 -  4) =      5.13466  eV     2   -->   2 A
     e(  5 -  5) =      7.77876  eV     1   --> A
     e(  6 -  7) =      9.56914  eV     2   -->   2 A
     e(  8 -  8) =     14.00700  eV     1   --> A

 **************************************************************************

 **************************************************************************

                    xk=(   0.25981,   0.18371,   0.45000  )

     Band symmetry, C_1 (1)     point group:

     e(  1 -  1) =     -3.43173  eV     1   --> A
     e(  2 -  2) =     -0.46957  eV     1   --> A
     e(  3 -  4) =      5.08106  eV     2   -->   2 A
     e(  5 -  5) =      7.71820  eV     1   --> A
     e(  6 -  7) =      9.51456  eV     2   -->   2 A
     e(  8 -  8) =     13.93062  eV     1   --> A

 **************************************************************************

 **************************************************************************

                    xk=(   0.28868,   0.20412,   0.50000  )

     zone border point and non-symmorphic group
     symmetry decomposition not available

 **************************************************************************

 **************************************************************************

                    xk=(   0.29589,   0.16330,   0.51250  )

     point group C_1 (1)
     there are  1 classes
     the character table:

       E
A      1.00

     the symmetry operations in each class and the name of the first element:

     E        1


     Band symmetry, C_1 (1)     point group:

     e(  1 -  1) =     -3.28365  eV     1   --> A
     e(  2 -  2) =     -0.65416  eV     1   --> A
     e(  3 -  3) =      4.91049  eV     1   --> A
     e(  4 -  4) =      5.03262  eV     1   --> A
     e(  5 -  5) =      7.83735  eV     1   --> A
     e(  6 -  6) =      9.47113  eV     1   --> A
     e(  7 -  7) =      9.55777  eV     1   --> A
     e(  8 -  8) =     13.96959  eV     1   --> A

 **************************************************************************

 **************************************************************************

                    xk=(   0.30311,   0.12247,   0.52500  )

     Band symmetry, C_1 (1)     point group:

     e(  1 -  1) =     -3.23511  eV     1   --> A
     e(  2 -  2) =     -0.62971  eV     1   --> A
     e(  3 -  3) =      4.53359  eV     1   --> A
     e(  4 -  4) =      4.94650  eV     1   --> A
     e(  5 -  5) =      8.14273  eV     1   --> A
     e(  6 -  6) =      9.44783  eV     1   --> A
     e(  7 -  7) =      9.74231  eV     1   --> A
     e(  8 -  8) =     14.13349  eV     1   --> A

 **************************************************************************

 **************************************************************************

                    xk=(   0.31033,   0.08165,   0.53750  )

     Band symmetry, C_1 (1)     point group:

     e(  1 -  1) =     -3.15453  eV     1   --> A
     e(  2 -  2) =     -0.59239  eV     1   --> A
     e(  3 -  3) =      4.05547  eV     1   --> A
     e(  4 -  4) =      4.81869  eV     1   --> A
     e(  5 -  5) =      8.36842  eV     1   --> A
     e(  6 -  6) =      9.58155  eV     1   --> A
     e(  7 -  7) =     10.03377  eV     1   --> A
     e(  8 -  8) =     14.19993  eV     1   --> A

 **************************************************************************

 **************************************************************************

                    xk=(   0.31754,   0.04082,   0.55000  )

     Band symmetry, C_1 (1)     point group:

     e(  1 -  1) =     -3.04242  eV     1   --> A
     e(  2 -  2) =     -0.54824  eV     1   --> A
     e(  3 -  3) =      3.55066  eV     1   --> A
     e(  4 -  4) =      4.66563  eV     1   --> A
     e(  5 -  5) =      8.35613  eV     1   --> A
     e(  6 -  6) =      9.99486  eV     1   --> A
     e(  7 -  7) =     10.41501  eV     1   --> A
     e(  8 -  8) =     13.83685  eV     1   --> A

 **************************************************************************

 **************************************************************************

                    xk=(   0.32476,  -0.00000,   0.56250  )

     Band symmetry, C_1 (1)     point group:

     e(  1 -  1) =     -2.89968  eV     1   --> A
     e(  2 -  2) =     -0.50774  eV     1   --> A
     e(  3 -  3) =      3.06250  eV     1   --> A
     e(  4 -  4) =      4.50211  eV     1   --> A
     e(  5 -  5) =      8.20506  eV     1   --> A
     e(  6 -  6) =     10.58081  eV     1   --> A
     e(  7 -  7) =     10.86998  eV     1   --> A
     e(  8 -  8) =     13.24808  eV     1   --> A

 **************************************************************************

 **************************************************************************

                    xk=(   0.33198,  -0.04082,   0.57500  )

     Band symmetry, C_1 (1)     point group:

     e(  1 -  1) =     -2.72788  eV     1   --> A
     e(  2 -  2) =     -0.48782  eV     1   --> A
     e(  3 -  3) =      2.62516  eV     1   --> A
     e(  4 -  4) =      4.33971  eV     1   --> A
     e(  5 -  5) =      8.01517  eV     1   --> A
     e(  6 -  6) =     11.23399  eV     1   --> A
     e(  7 -  7) =     11.38474  eV     1   --> A
     e(  8 -  8) =     12.63871  eV     1   --> A

 **************************************************************************

 **************************************************************************

                    xk=(   0.33919,  -0.08165,   0.58750  )

     Band symmetry, C_1 (1)     point group:

     e(  1 -  1) =     -2.52994  eV     1   --> A
     e(  2 -  2) =     -0.51242  eV     1   --> A
     e(  3 -  3) =      2.27384  eV     1   --> A
     e(  4 -  4) =      4.18689  eV     1   --> A
     e(  5 -  5) =      7.82693  eV     1   --> A
     e(  6 -  6) =     11.77415  eV     1   --> A
     e(  7 -  7) =     11.94599  eV     1   --> A
     e(  8 -  8) =     12.19401  eV     1   --> A

 **************************************************************************

 **************************************************************************

                    xk=(   0.34641,  -0.12247,   0.60000  )

     Band symmetry, C_1 (1)     point group:

     e(  1 -  1) =     -2.31220  eV     1   --> A
     e(  2 -  2) =     -0.60476  eV     1   --> A
     e(  3 -  3) =      2.04259  eV     1   --> A
     e(  4 -  4) =      4.04968  eV     1   --> A
     e(  5 -  5) =      7.65758  eV     1   --> A
     e(  6 -  6) =     11.37178  eV     1   --> A
     e(  7 -  7) =     12.53587  eV     1   --> A
     e(  8 -  8) =     12.74070  eV     1   --> A

 **************************************************************************

 **************************************************************************

                    xk=(   0.35363,  -0.16330,   0.61250  )

     Band symmetry, C_1 (1)     point group:

     e(  1 -  1) =     -2.09118  eV     1   --> A
     e(  2 -  2) =     -0.76357  eV     1   --> A
     e(  3 -  3) =      1.94881  eV     1   --> A
     e(  4 -  4) =      3.93230  eV     1   --> A
     e(  5 -  5) =      7.51559  eV     1   --> A
     e(  6 -  6) =     10.82972  eV     1   --> A
     e(  7 -  7) =     13.11419  eV     1   --> A
     e(  8 -  8) =     13.47309  eV     1   --> A

 **************************************************************************

 **************************************************************************

                    xk=(   0.36084,  -0.20412,   0.62500  )

     Band symmetry, C_1 (1)     point group:

     e(  1 -  1) =     -1.91878  eV     1   --> A
     e(  2 -  2) =     -0.92519  eV     1   --> A
     e(  3 -  3) =      1.98129  eV     1   --> A
     e(  4 -  4) =      3.83771  eV     1   --> A
     e(  5 -  5) =      7.40528  eV     1   --> A
     e(  6 -  6) =     10.31227  eV     1   --> A
     e(  7 -  7) =     13.55813  eV     1   --> A
     e(  8 -  8) =     14.17424  eV     1   --> A

 **************************************************************************

 **************************************************************************

                    xk=(   0.33919,  -0.20412,   0.63750  )

     Band symmetry, C_1 (1)     point group:

     e(  1 -  1) =     -1.91304  eV     1   --> A
     e(  2 -  2) =     -0.92752  eV     1   --> A
     e(  3 -  3) =      1.98588  eV     1   --> A
     e(  4 -  4) =      3.80150  eV     1   --> A
     e(  5 -  5) =      7.45915  eV     1   --> A
     e(  6 -  6) =     10.31624  eV     1   --> A
     e(  7 -  7) =     13.42627  eV     1   --> A
     e(  8 -  8) =     14.05023  eV     1   --> A

 **************************************************************************

 **************************************************************************

                    xk=(   0.31754,  -0.20412,   0.65000  )

     Band symmetry, C_1 (1)     point group:

     e(  1 -  1) =     -1.89584  eV     1   --> A
     e(  2 -  2) =     -0.93476  eV     1   --> A
     e(  3 -  3) =      1.99963  eV     1   --> A
     e(  4 -  4) =      3.69985  eV     1   --> A
     e(  5 -  5) =      7.61401  eV     1   --> A
     e(  6 -  6) =     10.32806  eV     1   --> A
     e(  7 -  7) =     13.16738  eV     1   --> A
     e(  8 -  8) =     13.67862  eV     1   --> A

 **************************************************************************

 **************************************************************************

                    xk=(   0.29589,  -0.20412,   0.66250  )

     Band symmetry, C_1 (1)     point group:

     e(  1 -  1) =     -1.86717  eV     1   --> A
     e(  2 -  2) =     -0.94772  eV     1   --> A
     e(  3 -  3) =      2.02249  eV     1   --> A
     e(  4 -  4) =      3.54971  eV     1   --> A
     e(  5 -  5) =      7.85356  eV     1   --> A
     e(  6 -  6) =     10.34749  eV     1   --> A
     e(  7 -  7) =     12.87888  eV     1   --> A
     e(  8 -  8) =     13.29967  eV     1   --> A

 **************************************************************************

 **************************************************************************

                    xk=(   0.27424,  -0.20412,   0.67500  )

     Band symmetry, C_1 (1)     point group:

     e(  1 -  1) =     -1.82707  eV     1   --> A
     e(  2 -  2) =     -0.96769  eV     1   --> A
     e(  3 -  3) =      2.05438  eV     1   --> A
     e(  4 -  4) =      3.37056  eV     1   --> A
     e(  5 -  5) =      8.15934  eV     1   --> A
     e(  6 -  6) =     10.37404  eV     1   --> A
     e(  7 -  7) =     12.58403  eV     1   --> A
     e(  8 -  8) =     12.92414  eV     1   --> A

 **************************************************************************

 **************************************************************************

                    xk=(   0.25259,  -0.20412,   0.68750  )

     Band symmetry, C_1 (1)     point group:

     e(  1 -  1) =     -1.77554  eV     1   --> A
     e(  2 -  2) =     -0.99647  eV     1   --> A
     e(  3 -  3) =      2.09516  eV     1   --> A
     e(  4 -  4) =      3.17960  eV     1   --> A
     e(  5 -  5) =      8.51539  eV     1   --> A
     e(  6 -  6) =     10.40683  eV     1   --> A
     e(  7 -  7) =     12.29084  eV     1   --> A
     e(  8 -  8) =     12.55548  eV     1   --> A

 **************************************************************************

 **************************************************************************

                    xk=(   0.23094,  -0.20412,   0.70000  )

     Band symmetry, C_1 (1)     point group:

     e(  1 -  1) =     -1.71263  eV     1   --> A
     e(  2 -  2) =     -1.03619  eV     1   --> A
     e(  3 -  3) =      2.14469  eV     1   --> A
     e(  4 -  4) =      2.99049  eV     1   --> A
     e(  5 -  5) =      8.90927  eV     1   --> A
     e(  6 -  6) =     10.44425  eV     1   --> A
     e(  7 -  7) =     12.00420  eV     1   --> A
     e(  8 -  8) =     12.19602  eV     1   --> A

 **************************************************************************

 **************************************************************************

                    xk=(   0.20929,  -0.20412,   0.71250  )

     Band symmetry, C_1 (1)     point group:

     e(  1 -  1) =     -1.63837  eV     1   --> A
     e(  2 -  2) =     -1.08920  eV     1   --> A
     e(  3 -  3) =      2.20274  eV     1   --> A
     e(  4 -  4) =      2.81367  eV     1   --> A
     e(  5 -  5) =      9.33079  eV     1   --> A
     e(  6 -  6) =     10.48312  eV     1   --> A
     e(  7 -  7) =     11.72924  eV     1   --> A
     e(  8 -  8) =     11.84860  eV     1   --> A

 **************************************************************************

 **************************************************************************

                    xk=(   0.18764,  -0.20412,   0.72500  )

     Band symmetry, C_1 (1)     point group:

     e(  1 -  1) =     -1.55280  eV     1   --> A
     e(  2 -  2) =     -1.15776  eV     1   --> A
     e(  3 -  3) =      2.26907  eV     1   --> A
     e(  4 -  4) =      2.65704  eV     1   --> A
     e(  5 -  5) =      9.76889  eV     1   --> A
     e(  6 -  6) =     10.51650  eV     1   --> A
     e(  7 -  7) =     11.47428  eV     1   --> A
     e(  8 -  8) =     11.51914  eV     1   --> A

 **************************************************************************

 **************************************************************************

                    xk=(   0.16599,  -0.20412,   0.73750  )

     Band symmetry, C_1 (1)     point group:

     e(  1 -  1) =     -1.45598  eV     1   --> A
     e(  2 -  2) =     -1.24369  eV     1   --> A
     e(  3 -  3) =      2.34335  eV     1   --> A
     e(  4 -  4) =      2.52630  eV     1   --> A
     e(  5 -  5) =     10.19827  eV     1   --> A
     e(  6 -  6) =     10.52782  eV     1   --> A
     e(  7 -  7) =     11.22926  eV     1   --> A
     e(  8 -  8) =     11.25695  eV     1   --> A

 **************************************************************************

 **************************************************************************

                    xk=(   0.14434,  -0.20412,   0.75000  )

     Band symmetry, C_1 (1)     point group:

     e(  1 -  2) =     -1.34800  eV     2   -->   2 A
     e(  3 -  4) =      2.42520  eV     2   -->   2 A
     e(  5 -  6) =     10.48315  eV     2   -->   2 A
     e(  7 -  8) =     11.11206  eV     2   -->   2 A

 **************************************************************************

 **************************************************************************

                    xk=(   0.15877,  -0.16330,   0.72500  )

     Band symmetry, C_1 (1)     point group:

     e(  1 -  1) =     -1.67113  eV     1   --> A
     e(  2 -  2) =     -1.03758  eV     1   --> A
     e(  3 -  3) =      2.22762  eV     1   --> A
     e(  4 -  4) =      2.70089  eV     1   --> A
     e(  5 -  5) =     10.17824  eV     1   --> A
     e(  6 -  6) =     10.46444  eV     1   --> A
     e(  7 -  7) =     11.14689  eV     1   --> A
     e(  8 -  8) =     11.48942  eV     1   --> A

 **************************************************************************

 **************************************************************************

                    xk=(   0.17321,  -0.12247,   0.70000  )

     Band symmetry, C_1 (1)     point group:

     e(  1 -  1) =     -1.98555  eV     1   --> A
     e(  2 -  2) =     -0.77164  eV     1   --> A
     e(  3 -  3) =      2.14341  eV     1   --> A
     e(  4 -  4) =      3.02748  eV     1   --> A
     e(  5 -  5) =      9.87658  eV     1   --> A
     e(  6 -  6) =     10.14613  eV     1   --> A
     e(  7 -  7) =     11.56793  eV     1   --> A
     e(  8 -  8) =     11.95310  eV     1   --> A

 **************************************************************************

 **************************************************************************

                    xk=(   0.18764,  -0.08165,   0.67500  )

     Band symmetry, C_1 (1)     point group:

     e(  1 -  1) =     -2.27805  eV     1   --> A
     e(  2 -  2) =     -0.58543  eV     1   --> A
     e(  3 -  3) =      2.20934  eV     1   --> A
     e(  4 -  4) =      3.38333  eV     1   --> A
     e(  5 -  5) =      9.62668  eV     1   --> A
     e(  6 -  6) =      9.81679  eV     1   --> A
     e(  7 -  7) =     12.08327  eV     1   --> A
     e(  8 -  8) =     12.45425  eV     1   --> A

 **************************************************************************

 **************************************************************************

                    xk=(   0.20207,  -0.04082,   0.65000  )

     Band symmetry, C_1 (1)     point group:

     e(  1 -  1) =     -2.54057  eV     1   --> A
     e(  2 -  2) =     -0.49562  eV     1   --> A
     e(  3 -  3) =      2.44161  eV     1   --> A
     e(  4 -  4) =      3.74868  eV     1   --> A
     e(  5 -  5) =      9.44069  eV     1   --> A
     e(  6 -  6) =      9.50967  eV     1   --> A
     e(  7 -  7) =     12.64629  eV     1   --> A
     e(  8 -  8) =     12.97676  eV     1   --> A

 **************************************************************************

 **************************************************************************

                    xk=(   0.21651,  -0.00000,   0.62500  )

     Band symmetry, C_1 (1)     point group:

     e(  1 -  1) =     -2.76809  eV     1   --> A
     e(  2 -  2) =     -0.48549  eV     1   --> A
     e(  3 -  3) =      2.82049  eV     1   --> A
     e(  4 -  4) =      4.10331  eV     1   --> A
     e(  5 -  5) =      9.22351  eV     1   --> A
     e(  6 -  6) =      9.32564  eV     1   --> A
     e(  7 -  7) =     12.04825  eV     1   --> A
     e(  8 -  8) =     13.28453  eV     1   --> A

 **************************************************************************

 **************************************************************************

                    xk=(   0.23094,   0.04082,   0.60000  )

     Band symmetry, C_1 (1)     point group:

     e(  1 -  1) =     -2.95738  eV     1   --> A
     e(  2 -  2) =     -0.52097  eV     1   --> A
     e(  3 -  3) =      3.30476  eV     1   --> A
     e(  4 -  4) =      4.42606  eV     1   --> A
     e(  5 -  5) =      8.94337  eV     1   --> A
     e(  6 -  6) =      9.28441  eV     1   --> A
     e(  7 -  7) =     11.16324  eV     1   --> A
     e(  8 -  8) =     13.96879  eV     1   --> A

 **************************************************************************

 **************************************************************************

                    xk=(   0.24537,   0.08165,   0.57500  )

     Band symmetry, C_1 (1)     point group:

     e(  1 -  1) =     -3.10634  eV     1   --> A
     e(  2 -  2) =     -0.57210  eV     1   --> A
     e(  3 -  3) =      3.84924  eV     1   --> A
     e(  4 -  4) =      4.69652  eV     1   --> A
     e(  5 -  5) =      8.63609  eV     1   --> A
     e(  6 -  6) =      9.31109  eV     1   --> A
     e(  7 -  7) =     10.41260  eV     1   --> A
     e(  8 -  8) =     14.24763  eV     1   --> A

 **************************************************************************

 **************************************************************************

                    xk=(   0.25981,   0.12247,   0.55000  )

     Band symmetry, C_1 (1)     point group:

     e(  1 -  1) =     -3.21358  eV     1   --> A
     e(  2 -  2) =     -0.61931  eV     1   --> A
     e(  3 -  3) =      4.40019  eV     1   --> A
     e(  4 -  4) =      4.89834  eV     1   --> A
     e(  5 -  5) =      8.26399  eV     1   --> A
     e(  6 -  6) =      9.38375  eV     1   --> A
     e(  7 -  7) =      9.87462  eV     1   --> A
     e(  8 -  8) =     14.18881  eV     1   --> A

 **************************************************************************

 **************************************************************************

                    xk=(   0.27424,   0.16330,   0.52500  )

     Band symmetry, C_1 (1)     point group:

     e(  1 -  1) =     -3.27825  eV     1   --> A
     e(  2 -  2) =     -0.65137  eV     1   --> A
     e(  3 -  3) =      4.86406  eV     1   --> A
     e(  4 -  4) =      5.02180  eV     1   --> A
     e(  5 -  5) =      7.87958  eV     1   --> A
     e(  6 -  6) =      9.46097  eV     1   --> A
     e(  7 -  7) =      9.58232  eV     1   --> A
     e(  8 -  8) =     13.99119  eV     1   --> A

 **************************************************************************

 **************************************************************************

                    xk=(   0.28868,   0.20412,   0.50000  )

     zone border point and non-symmorphic group
     symmetry decomposition not available

 **************************************************************************

 **************************************************************************

                    xk=(   0.29589,   0.16330,   0.51250  )

     point group C_1 (1)
     there are  1 classes
     the character table:

       E
A      1.00

     the symmetry operations in each class and the name of the first element:

     E        1


     Band symmetry, C_1 (1)     point group:

     e(  1 -  1) =     -3.28365  eV     1   --> A
     e(  2 -  2) =     -0.65416  eV     1   --> A
     e(  3 -  3) =      4.91049  eV     1   --> A
     e(  4 -  4) =      5.03262  eV     1   --> A
     e(  5 -  5) =      7.83735  eV     1   --> A
     e(  6 -  6) =      9.47113  eV     1   --> A
     e(  7 -  7) =      9.55777  eV     1   --> A
     e(  8 -  8) =     13.96959  eV     1   --> A

 **************************************************************************

 **************************************************************************

                    xk=(   0.30311,   0.12247,   0.52500  )

     Band symmetry, C_1 (1)     point group:

     e(  1 -  1) =     -3.23511  eV     1   --> A
     e(  2 -  2) =     -0.62971  eV     1   --> A
     e(  3 -  3) =      4.53359  eV     1   --> A
     e(  4 -  4) =      4.94650  eV     1   --> A
     e(  5 -  5) =      8.14273  eV     1   --> A
     e(  6 -  6) =      9.44783  eV     1   --> A
     e(  7 -  7) =      9.74231  eV     1   --> A
     e(  8 -  8) =     14.13349  eV     1   --> A

 **************************************************************************

 **************************************************************************

                    xk=(   0.31033,   0.08165,   0.53750  )

     Band symmetry, C_1 (1)     point group:

     e(  1 -  1) =     -3.15453  eV     1   --> A
     e(  2 -  2) =     -0.59239  eV     1   --> A
     e(  3 -  3) =      4.05547  eV     1   --> A
     e(  4 -  4) =      4.81869  eV     1   --> A
     e(  5 -  5) =      8.36842  eV     1   --> A
     e(  6 -  6) =      9.58155  eV     1   --> A
     e(  7 -  7) =     10.03377  eV     1   --> A
     e(  8 -  8) =     14.19993  eV     1   --> A

 **************************************************************************

 **************************************************************************

                    xk=(   0.31754,   0.04082,   0.55000  )

     Band symmetry, C_1 (1)     point group:

     e(  1 -  1) =     -3.04242  eV     1   --> A
     e(  2 -  2) =     -0.54824  eV     1   --> A
     e(  3 -  3) =      3.55066  eV     1   --> A
     e(  4 -  4) =      4.66563  eV     1   --> A
     e(  5 -  5) =      8.35613  eV     1   --> A
     e(  6 -  6) =      9.99486  eV     1   --> A
     e(  7 -  7) =     10.41501  eV     1   --> A
     e(  8 -  8) =     13.83685  eV     1   --> A

 **************************************************************************

 **************************************************************************

                    xk=(   0.32476,  -0.00000,   0.56250  )

     Band symmetry, C_1 (1)     point group:

     e(  1 -  1) =     -2.89968  eV     1   --> A
     e(  2 -  2) =     -0.50774  eV     1   --> A
     e(  3 -  3) =      3.06250  eV     1   --> A
     e(  4 -  4) =      4.50211  eV     1   --> A
     e(  5 -  5) =      8.20506  eV     1   --> A
     e(  6 -  6) =     10.58081  eV     1   --> A
     e(  7 -  7) =     10.86998  eV     1   --> A
     e(  8 -  8) =     13.24808  eV     1   --> A

 **************************************************************************

 **************************************************************************

                    xk=(   0.33198,  -0.04082,   0.57500  )

     Band symmetry, C_1 (1)     point group:

     e(  1 -  1) =     -2.72788  eV     1   --> A
     e(  2 -  2) =     -0.48782  eV     1   --> A
     e(  3 -  3) =      2.62516  eV     1   --> A
     e(  4 -  4) =      4.33971  eV     1   --> A
     e(  5 -  5) =      8.01517  eV     1   --> A
     e(  6 -  6) =     11.23399  eV     1   --> A
     e(  7 -  7) =     11.38474  eV     1   --> A
     e(  8 -  8) =     12.63871  eV     1   --> A

 **************************************************************************

 **************************************************************************

                    xk=(   0.33919,  -0.08165,   0.58750  )

     Band symmetry, C_1 (1)     point group:

     e(  1 -  1) =     -2.52994  eV     1   --> A
     e(  2 -  2) =     -0.51242  eV     1   --> A
     e(  3 -  3) =      2.27384  eV     1   --> A
     e(  4 -  4) =      4.18689  eV     1   --> A
     e(  5 -  5) =      7.82693  eV     1   --> A
     e(  6 -  6) =     11.77415  eV     1   --> A
     e(  7 -  7) =     11.94599  eV     1   --> A
     e(  8 -  8) =     12.19401  eV     1   --> A

 **************************************************************************

 **************************************************************************

                    xk=(   0.34641,  -0.12247,   0.60000  )

     Band symmetry, C_1 (1)     point group:

     e(  1 -  1) =     -2.31220  eV     1   --> A
     e(  2 -  2) =     -0.60476  eV     1   --> A
     e(  3 -  3) =      2.04259  eV     1   --> A
     e(  4 -  4) =      4.04968  eV     1   --> A
     e(  5 -  5) =      7.65758  eV     1   --> A
     e(  6 -  6) =     11.37178  eV     1   --> A
     e(  7 -  7) =     12.53587  eV     1   --> A
     e(  8 -  8) =     12.74070  eV     1   --> A

 **************************************************************************

 **************************************************************************

                    xk=(   0.35363,  -0.16330,   0.61250  )

     Band symmetry, C_1 (1)     point group:

     e(  1 -  1) =     -2.09118  eV     1   --> A
     e(  2 -  2) =     -0.76357  eV     1   --> A
     e(  3 -  3) =      1.94881  eV     1   --> A
     e(  4 -  4) =      3.93230  eV     1   --> A
     e(  5 -  5) =      7.51559  eV     1   --> A
     e(  6 -  6) =     10.82972  eV     1   --> A
     e(  7 -  7) =     13.11419  eV     1   --> A
     e(  8 -  8) =     13.47309  eV     1   --> A

 **************************************************************************

 **************************************************************************

                    xk=(   0.36084,  -0.20412,   0.62500  )

     Band symmetry, C_1 (1)     point group:

     e(  1 -  1) =     -1.91878  eV     1   --> A
     e(  2 -  2) =     -0.92519  eV     1   --> A
     e(  3 -  3) =      1.98129  eV     1   --> A
     e(  4 -  4) =      3.83771  eV     1   --> A
     e(  5 -  5) =      7.40528  eV     1   --> A
     e(  6 -  6) =     10.31227  eV     1   --> A
     e(  7 -  7) =     13.55813  eV     1   --> A
     e(  8 -  8) =     14.17424  eV     1   --> A

 **************************************************************************

 **************************************************************************

                    xk=(   0.35363,  -0.22454,   0.61250  )

     Band symmetry, C_1 (1)     point group:

     e(  1 -  1) =     -1.81748  eV     1   --> A
     e(  2 -  2) =     -1.03573  eV     1   --> A
     e(  3 -  3) =      2.08347  eV     1   --> A
     e(  4 -  4) =      3.75891  eV     1   --> A
     e(  5 -  5) =      7.31571  eV     1   --> A
     e(  6 -  6) =      9.81914  eV     1   --> A
     e(  7 -  7) =     13.86612  eV     1   --> A
     e(  8 -  8) =     14.49834  eV     1   --> A

 **************************************************************************

 **************************************************************************

                    xk=(   0.34641,  -0.24495,   0.60000  )

     Band symmetry, C_1 (1)     point group:

     e(  1 -  1) =     -1.73411  eV     1   --> A
     e(  2 -  2) =     -1.13474  eV     1   --> A
     e(  3 -  3) =      2.21559  eV     1   --> A
     e(  4 -  4) =      3.68762  eV     1   --> A
     e(  5 -  5) =      7.23465  eV     1   --> A
     e(  6 -  6) =      9.34231  eV     1   --> A
     e(  7 -  7) =     14.17863  eV     1   --> A
     e(  8 -  8) =     14.79216  eV     1   --> A

 **************************************************************************

 **************************************************************************

                    xk=(   0.33919,  -0.26536,   0.58750  )

     Band symmetry, C_1 (1)     point group:

     e(  1 -  1) =     -1.66761  eV     1   --> A
     e(  2 -  2) =     -1.22218  eV     1   --> A
     e(  3 -  3) =      2.37385  eV     1   --> A
     e(  4 -  4) =      3.62409  eV     1   --> A
     e(  5 -  5) =      7.16244  eV     1   --> A
     e(  6 -  6) =      8.88556  eV     1   --> A
     e(  7 -  7) =     14.49371  eV     1   --> A
     e(  8 -  8) =     15.03476  eV     1   --> A

 **************************************************************************

 **************************************************************************

                    xk=(   0.33198,  -0.28577,   0.57500  )

     Band symmetry, C_1 (1)     point group:

     e(  1 -  1) =     -1.61618  eV     1   --> A
     e(  2 -  2) =     -1.29803  eV     1   --> A
     e(  3 -  3) =      2.55252  eV     1   --> A
     e(  4 -  4) =      3.56859  eV     1   --> A
     e(  5 -  5) =      7.09937  eV     1   --> A
     e(  6 -  6) =      8.45349  eV     1   --> A
     e(  7 -  7) =     14.80853  eV     1   --> A
     e(  8 -  8) =     15.27097  eV     1   --> A

 **************************************************************************

 **************************************************************************

                    xk=(   0.32476,  -0.30619,   0.56250  )

     Band symmetry, C_1 (1)     point group:

     e(  1 -  1) =     -1.57762  eV     1   --> A
     e(  2 -  2) =     -1.36225  eV     1   --> A
     e(  3 -  3) =      2.74378  eV     1   --> A
     e(  4 -  4) =      3.52131  eV     1   --> A
     e(  5 -  5) =      7.04565  eV     1   --> A
     e(  6 -  6) =      8.05220  eV     1   --> A
     e(  7 -  7) =     15.11875  eV     1   --> A
     e(  8 -  8) =     15.49587  eV     1   --> A

 **************************************************************************

 **************************************************************************

                    xk=(   0.31754,  -0.32660,   0.55000  )

     Band symmetry, C_1 (1)     point group:

     e(  1 -  1) =     -1.54967  eV     1   --> A
     e(  2 -  2) =     -1.41482  eV     1   --> A
     e(  3 -  3) =      2.93721  eV     1   --> A
     e(  4 -  4) =      3.48241  eV     1   --> A
     e(  5 -  5) =      7.00146  eV     1   --> A
     e(  6 -  6) =      7.69015  eV     1   --> A
     e(  7 -  7) =     15.41744  eV     1   --> A
     e(  8 -  8) =     15.70287  eV     1   --> A

 **************************************************************************

 **************************************************************************

                    xk=(   0.31033,  -0.34701,   0.53750  )

     Band symmetry, C_1 (1)     point group:

     e(  1 -  1) =     -1.53025  eV     1   --> A
     e(  2 -  2) =     -1.45573  eV     1   --> A
     e(  3 -  3) =      3.11911  eV     1   --> A
     e(  4 -  4) =      3.45203  eV     1   --> A
     e(  5 -  5) =      6.96696  eV     1   --> A
     e(  6 -  6) =      7.37921  eV     1   --> A
     e(  7 -  7) =     15.69321  eV     1   --> A
     e(  8 -  8) =     15.88317  eV     1   --> A

 **************************************************************************

 **************************************************************************

                    xk=(   0.30311,  -0.36742,   0.52500  )

     Band symmetry, C_1 (1)     point group:

     e(  1 -  1) =     -1.51765  eV     1   --> A
     e(  2 -  2) =     -1.48496  eV     1   --> A
     e(  3 -  3) =      3.27198  eV     1   --> A
     e(  4 -  4) =      3.43026  eV     1   --> A
     e(  5 -  5) =      6.94224  eV     1   --> A
     e(  6 -  6) =      7.13533  eV     1   --> A
     e(  7 -  7) =     15.92719  eV     1   --> A
     e(  8 -  8) =     16.02572  eV     1   --> A

 **************************************************************************

 **************************************************************************

                    xk=(   0.29589,  -0.38784,   0.51250  )

     Band symmetry, C_1 (1)     point group:

     e(  1 -  1) =     -1.51060  eV     1   --> A
     e(  2 -  2) =     -1.50250  eV     1   --> A
     e(  3 -  3) =      3.37576  eV     1   --> A
     e(  4 -  4) =      3.41717  eV     1   --> A
     e(  5 -  5) =      6.92738  eV     1   --> A
     e(  6 -  6) =      6.97741  eV     1   --> A
     e(  7 -  7) =     16.09064  eV     1   --> A
     e(  8 -  8) =     16.11828  eV     1   --> A

 **************************************************************************

 **************************************************************************

                    xk=(   0.28868,  -0.40825,   0.50000  )

     zone border point and non-symmorphic group
     symmetry decomposition not available

 **************************************************************************

     BANDS        :      2.06s CPU      2.22s WALL


   This run was terminated on:  17:54: 8  13Nov2023

=------------------------------------------------------------------------------=
   JOB DONE.
=------------------------------------------------------------------------------=
