
     Program PROJWFC v.7.0 starts on 13Nov2023 at 17:54:17

     This program is part of the open-source Quantum ESPRESSO suite
     for quantum simulation of materials; please cite
         "P. Giannozzi et al., J. Phys.:Condens. Matter 21 395502 (2009);
         "P. Giannozzi et al., J. Phys.:Condens. Matter 29 465901 (2017);
         "P. Giannozzi et al., J. Chem. Phys. 152 154105 (2020);
          URL http://www.quantum-espresso.org",
     in publications or presentations arising from this work. More details at
     http://www.quantum-espresso.org/quote

     Parallel version (MPI & OpenMP), running on       1 processor cores
     Number of MPI processes:                 1
     Threads/MPI process:                     1

     MPI processes distributed on     1 nodes
     116 MiB available memory on the printing compute node when the environment starts


     Reading xml data from directory:

     /home/demo/data/demo-default/band-structure-Py5xwkYHJGC89suoG/outdir/__prefix__.save/

     IMPORTANT: XC functional enforced from input :
     Exchange-correlation= PBE
                           (   1   4   3   4   0   0   0)
     Any further DFT definition will be discarded
     Please, verify this is what you really want


     G-vector sticks info
     --------------------
     sticks:   dense  smooth     PW     G-vecs:    dense   smooth      PW
     Sum         745     583    169                13323     9409    1471

     Using Slab Decomposition


     Gaussian broadening (read from input): ngauss,degauss=   0    0.010000


     Calling projwave ....

     Subspace diagonalization in iterative solution of the eigenvalue problem:
     a serial algorithm will be used


  Problem Sizes
  natomwfc =            8
  nbnd     =            8
  nkstot   =            6
  npwx     =         1243
  nkb      =           36


     Atomic states used for projection
     (read from pseudopotential files):

     state #   1: atom   1 (Si ), wfc  1 (l=0 m= 1)
     state #   2: atom   1 (Si ), wfc  2 (l=1 m= 1)
     state #   3: atom   1 (Si ), wfc  2 (l=1 m= 2)
     state #   4: atom   1 (Si ), wfc  2 (l=1 m= 3)
     state #   5: atom   2 (Si ), wfc  1 (l=0 m= 1)
     state #   6: atom   2 (Si ), wfc  2 (l=1 m= 1)
     state #   7: atom   2 (Si ), wfc  2 (l=1 m= 2)
     state #   8: atom   2 (Si ), wfc  2 (l=1 m= 3)

 k =   0.0000000000  0.0000000000  0.0000000000
==== e(   1) =    -5.59663 eV ====
     psi = 0.498*[#   1]+0.498*[#   5]
    |psi|^2 = 0.997
==== e(   2) =     6.27193 eV ====
     psi = 0.481*[#   2]+0.481*[#   6]
    |psi|^2 = 0.962
==== e(   3) =     6.27193 eV ====
     psi = 0.384*[#   4]+0.384*[#   8]+0.097*[#   3]+0.097*[#   7]
    |psi|^2 = 0.962
==== e(   4) =     6.27196 eV ====
     psi = 0.384*[#   3]+0.384*[#   7]+0.097*[#   4]+0.097*[#   8]
    |psi|^2 = 0.962
==== e(   5) =     8.71293 eV ====
     psi = 0.420*[#   3]+0.420*[#   7]+0.063*[#   4]+0.063*[#   8]
    |psi|^2 = 0.965
==== e(   6) =     8.71294 eV ====
     psi = 0.420*[#   4]+0.420*[#   8]+0.063*[#   3]+0.063*[#   7]
    |psi|^2 = 0.965
==== e(   7) =     8.71294 eV ====
     psi = 0.483*[#   2]+0.483*[#   6]
    |psi|^2 = 0.965
==== e(   8) =     9.41870 eV ====
     psi = 0.494*[#   1]+0.494*[#   5]
    |psi|^2 = 0.988

 k =   0.2886751346  0.2041240989 -0.5000000000
==== e(   1) =    -3.29985 eV ====
     psi = 0.386*[#   1]+0.386*[#   5]+0.075*[#   2]+0.075*[#   6]+0.025*[#   3]
          +0.025*[#   7]+0.013*[#   4]+0.013*[#   8]
    |psi|^2 = 0.997
==== e(   2) =    -0.66263 eV ====
     psi = 0.250*[#   2]+0.250*[#   6]+0.119*[#   1]+0.119*[#   5]+0.083*[#   3]
          +0.083*[#   7]+0.042*[#   4]+0.042*[#   8]
    |psi|^2 = 0.988
==== e(   3) =     5.06317 eV ====
     psi = 0.265*[#   4]+0.265*[#   8]+0.144*[#   2]+0.144*[#   6]+0.085*[#   3]
          +0.085*[#   7]
    |psi|^2 = 0.989
==== e(   4) =     5.06319 eV ====
     psi = 0.299*[#   3]+0.299*[#   7]+0.174*[#   4]+0.174*[#   8]+0.021*[#   2]
          +0.021*[#   6]
    |psi|^2 = 0.989
==== e(   5) =     7.69789 eV ====
     psi = 0.342*[#   1]+0.342*[#   5]+0.080*[#   2]+0.080*[#   6]+0.027*[#   3]
          +0.027*[#   7]+0.013*[#   4]+0.013*[#   8]
    |psi|^2 = 0.924
==== e(   6) =     9.49436 eV ====
     psi = 0.255*[#   3]+0.255*[#   7]+0.101*[#   4]+0.101*[#   8]+0.026*[#   2]
          +0.026*[#   6]
    |psi|^2 = 0.766
==== e(   7) =     9.49437 eV ====
     psi = 0.239*[#   4]+0.239*[#   8]+0.101*[#   2]+0.101*[#   6]+0.042*[#   3]
          +0.042*[#   7]
    |psi|^2 = 0.766
==== e(   8) =    13.90054 eV ====
     psi = 0.046*[#   2]+0.046*[#   6]+0.019*[#   1]+0.019*[#   5]+0.015*[#   3]
          +0.015*[#   7]+0.008*[#   4]+0.008*[#   8]
    |psi|^2 = 0.175

 k =   0.0000000000 -0.6123724819  0.0000000000
==== e(   1) =    -3.29986 eV ====
     psi = 0.386*[#   1]+0.386*[#   5]+0.113*[#   4]+0.113*[#   8]
    |psi|^2 = 0.997
==== e(   2) =    -0.66262 eV ====
     psi = 0.375*[#   4]+0.375*[#   8]+0.119*[#   1]+0.119*[#   5]
    |psi|^2 = 0.988
==== e(   3) =     5.06317 eV ====
     psi = 0.494*[#   2]+0.494*[#   6]
    |psi|^2 = 0.989
==== e(   4) =     5.06319 eV ====
     psi = 0.494*[#   3]+0.494*[#   7]
    |psi|^2 = 0.989
==== e(   5) =     7.69789 eV ====
     psi = 0.342*[#   1]+0.342*[#   5]+0.120*[#   4]+0.120*[#   8]
    |psi|^2 = 0.924
==== e(   6) =     9.49435 eV ====
     psi = 0.383*[#   3]+0.383*[#   7]
    |psi|^2 = 0.766
==== e(   7) =     9.49437 eV ====
     psi = 0.383*[#   2]+0.383*[#   6]
    |psi|^2 = 0.766
==== e(   8) =    13.90054 eV ====
     psi = 0.069*[#   4]+0.069*[#   8]+0.019*[#   1]+0.019*[#   5]
    |psi|^2 = 0.175

 k =   0.2886751346 -0.4082483829 -0.5000000000
==== e(   1) =    -1.50835 eV ====
     psi = 0.281*[#   1]+0.281*[#   5]+0.108*[#   2]+0.108*[#   6]+0.072*[#   4]
          +0.072*[#   8]+0.036*[#   3]+0.036*[#   7]
    |psi|^2 = 0.994
==== e(   2) =    -1.50834 eV ====
     psi = 0.281*[#   1]+0.281*[#   5]+0.108*[#   2]+0.108*[#   6]+0.072*[#   4]
          +0.072*[#   8]+0.036*[#   3]+0.036*[#   7]
    |psi|^2 = 0.994
==== e(   3) =     3.41279 eV ====
     psi = 0.332*[#   4]+0.332*[#   8]+0.124*[#   2]+0.124*[#   6]+0.041*[#   3]
          +0.041*[#   7]
    |psi|^2 = 0.996
==== e(   4) =     3.41280 eV ====
     psi = 0.373*[#   3]+0.373*[#   7]+0.124*[#   2]+0.124*[#   6]
    |psi|^2 = 0.996
==== e(   5) =     6.92241 eV ====
     psi = 0.171*[#   1]+0.171*[#   5]+0.123*[#   2]+0.123*[#   6]+0.082*[#   4]
          +0.082*[#   8]+0.041*[#   3]+0.041*[#   7]
    |psi|^2 = 0.835
==== e(   6) =     6.92242 eV ====
     psi = 0.171*[#   1]+0.171*[#   5]+0.123*[#   2]+0.123*[#   6]+0.082*[#   4]
          +0.082*[#   8]+0.041*[#   3]+0.041*[#   7]
    |psi|^2 = 0.835
==== e(   7) =    16.15052 eV ====
     psi = 0.347*[#   3]+0.347*[#   7]+0.116*[#   2]+0.116*[#   6]
    |psi|^2 = 0.925
==== e(   8) =    16.15052 eV ====
     psi = 0.308*[#   4]+0.308*[#   8]+0.116*[#   2]+0.116*[#   6]+0.039*[#   3]
          +0.039*[#   7]
    |psi|^2 = 0.925

 k =  -0.5773502692  0.2041242840  0.0000000000
==== e(   1) =    -3.29986 eV ====
     psi = 0.386*[#   1]+0.386*[#   5]+0.100*[#   3]+0.100*[#   7]+0.013*[#   4]
          +0.013*[#   8]
    |psi|^2 = 0.997
==== e(   2) =    -0.66260 eV ====
     psi = 0.333*[#   3]+0.333*[#   7]+0.119*[#   1]+0.119*[#   5]+0.042*[#   4]
          +0.042*[#   8]
    |psi|^2 = 0.988
==== e(   3) =     5.06317 eV ====
     psi = 0.494*[#   2]+0.494*[#   6]
    |psi|^2 = 0.989
==== e(   4) =     5.06317 eV ====
     psi = 0.440*[#   4]+0.440*[#   8]+0.055*[#   3]+0.055*[#   7]
    |psi|^2 = 0.989
==== e(   5) =     7.69788 eV ====
     psi = 0.342*[#   1]+0.342*[#   5]+0.106*[#   3]+0.106*[#   7]+0.013*[#   4]
          +0.013*[#   8]
    |psi|^2 = 0.924
==== e(   6) =     9.49435 eV ====
     psi = 0.340*[#   4]+0.340*[#   8]+0.043*[#   3]+0.043*[#   7]
    |psi|^2 = 0.766
==== e(   7) =     9.49436 eV ====
     psi = 0.383*[#   2]+0.383*[#   6]
    |psi|^2 = 0.766
==== e(   8) =    13.90053 eV ====
     psi = 0.061*[#   3]+0.061*[#   7]+0.019*[#   1]+0.019*[#   5]+0.008*[#   4]
          +0.008*[#   8]
    |psi|^2 = 0.175

 k =  -0.5773502692 -0.4082481979  0.0000000000
==== e(   1) =    -1.50835 eV ====
     psi = 0.281*[#   1]+0.281*[#   5]+0.144*[#   3]+0.144*[#   7]+0.072*[#   4]
          +0.072*[#   8]
    |psi|^2 = 0.994
==== e(   2) =    -1.50833 eV ====
     psi = 0.281*[#   1]+0.281*[#   5]+0.144*[#   3]+0.144*[#   7]+0.072*[#   4]
          +0.072*[#   8]
    |psi|^2 = 0.994
==== e(   3) =     3.41279 eV ====
     psi = 0.498*[#   2]+0.498*[#   6]
    |psi|^2 = 0.996
==== e(   4) =     3.41280 eV ====
     psi = 0.332*[#   4]+0.332*[#   8]+0.166*[#   3]+0.166*[#   7]
    |psi|^2 = 0.996
==== e(   5) =     6.92241 eV ====
     psi = 0.171*[#   1]+0.171*[#   5]+0.164*[#   3]+0.164*[#   7]+0.082*[#   4]
          +0.082*[#   8]
    |psi|^2 = 0.835
==== e(   6) =     6.92243 eV ====
     psi = 0.171*[#   1]+0.171*[#   5]+0.164*[#   3]+0.164*[#   7]+0.082*[#   4]
          +0.082*[#   8]
    |psi|^2 = 0.835
==== e(   7) =    16.15052 eV ====
     psi = 0.308*[#   4]+0.308*[#   8]+0.154*[#   3]+0.154*[#   7]
    |psi|^2 = 0.925
==== e(   8) =    16.15052 eV ====
     psi = 0.463*[#   2]+0.463*[#   6]
    |psi|^2 = 0.925

Lowdin Charges:

     Atom #   1: total charge =   3.9588, s =  1.0503,
     Atom #   1: total charge =   3.9588, p =  2.9085, pz=  0.9695, px=  0.9695, py=  0.9695,
     Atom #   2: total charge =   3.9588, s =  1.0503,
     Atom #   2: total charge =   3.9588, p =  2.9085, pz=  0.9695, px=  0.9695, py=  0.9695,
     Spilling Parameter:   0.0103

     PROJWFC      :      0.81s CPU      0.88s WALL


   This run was terminated on:  17:54:17  13Nov2023

=------------------------------------------------------------------------------=
   JOB DONE.
=------------------------------------------------------------------------------=
