
     Program PWSCF v.7.0 starts on 13Nov2023 at 17:53:51

     This program is part of the open-source Quantum ESPRESSO suite
     for quantum simulation of materials; please cite
         "P. Giannozzi et al., J. Phys.:Condens. Matter 21 395502 (2009);
         "P. Giannozzi et al., J. Phys.:Condens. Matter 29 465901 (2017);
         "P. Giannozzi et al., J. Chem. Phys. 152 154105 (2020);
          URL http://www.quantum-espresso.org",
     in publications or presentations arising from this work. More details at
     http://www.quantum-espresso.org/quote

     Parallel version (MPI & OpenMP), running on       1 processor cores
     Number of MPI processes:                 1
     Threads/MPI process:                     1

     MPI processes distributed on     1 nodes
     243 MiB available memory on the printing compute node when the environment starts

     Reading input from pw_bands.in
Warning: card &IONS ignored
Warning: card / ignored
Warning: card &CELL ignored
Warning: card / ignored

     Current dimensions of program PWSCF are:
     Max number of different atomic species (ntypx) = 10
     Max number of k-points (npk) =  40000
     Max angular momentum in pseudopotentials (lmaxx) =  4

     Atomic positions and unit cell read from directory:
     /home/demo/data/demo-default/band-structure-Py5xwkYHJGC89suoG/outdir/__prefix__.save/
     Atomic positions from file used, from input discarded

     Message from routine setup:
     using ibrav=0 with symmetry is DISCOURAGED, use correct ibrav instead

     Subspace diagonalization in iterative solution of the eigenvalue problem:
     a serial algorithm will be used


     G-vector sticks info
     --------------------
     sticks:   dense  smooth     PW     G-vecs:    dense   smooth      PW
     Sum         745     583    187                13323     9409    1639

     Using Slab Decomposition



     bravais-lattice index     =            0
     lattice parameter (alat)  =       7.3076  a.u.
     unit-cell volume          =     275.9333 (a.u.)^3
     number of atoms/cell      =            2
     number of atomic types    =            1
     number of electrons       =         8.00
     number of Kohn-Sham states=            8
     kinetic-energy cutoff     =      40.0000  Ry
     charge density cutoff     =     200.0000  Ry
     Exchange-correlation= SLA  PW   PBE  PBE
                           (   1   4   3   4   0   0   0)

     celldm(1)=   7.307571  celldm(2)=   0.000000  celldm(3)=   0.000000
     celldm(4)=   0.000000  celldm(5)=   0.000000  celldm(6)=   0.000000

     crystal axes: (cart. coord. in units of alat)
               a(1) = (   0.866025   0.000000   0.500000 )
               a(2) = (   0.288675   0.816497   0.500000 )
               a(3) = (   0.000000   0.000000   1.000000 )

     reciprocal axes: (cart. coord. in units 2 pi/alat)
               b(1) = (  1.154701 -0.408249  0.000000 )
               b(2) = (  0.000000  1.224745  0.000000 )
               b(3) = ( -0.577350 -0.408248  1.000000 )


     PseudoPot. # 1 for Si read from file:
     /home/demo/data/demo-default/band-structure-Py5xwkYHJGC89suoG/pseudo/si_pbe_gbrv_1.0.upf
     MD5 check sum: a056efeee980c13900f22a371efd63c1
     Pseudo is Ultrasoft + core correction, Zval =  4.0
     Generated by new atomic code, or converted to UPF format
     Using radial grid of  899 points,  6 beta functions with:
                l(1) =   0
                l(2) =   0
                l(3) =   1
                l(4) =   1
                l(5) =   2
                l(6) =   2
     Q(r) pseudized with  8 coefficients,  rinner =    0.900   0.900   0.900
                                                       0.900   0.900

     atomic species   valence    mass     pseudopotential
        Si             4.00    28.08550     Si( 1.00)

      4 Sym. Ops., with inversion, found ( 2 have fractional translation)



   Cartesian axes

     site n.     atom                  positions (alat units)
         1           Si  tau(   1) = (   0.0000000   0.0000000   0.0000000  )
         2           Si  tau(   2) = (   0.2886752   0.2041241   0.5000000  )

     number of k points=   101  Gaussian smearing, width (Ry)=  0.0050

     Number of k-points >= 100: set verbosity='high' to print them.

     Dense  grid:    13323 G-vectors     FFT dimensions: (  36,  36,  36)

     Smooth grid:     9409 G-vectors     FFT dimensions: (  32,  32,  32)

     Estimated max dynamical RAM per process >      45.05 MB

     The potential is recalculated from file :
     /home/demo/data/demo-default/band-structure-Py5xwkYHJGC89suoG/outdir/__prefix__.save/charge-density

     Starting wfcs are    8 randomized atomic wfcs

     Band Structure Calculation
     Davidson diagonalization with overlap

     ethr =  1.25E-08,  avg # of iterations = 14.2

     total cpu time spent up to now is       10.5 secs

     End of band structure calculation

     Number of k-points >= 100: set verbosity='high' to print the bands.

     Writing all to output data dir /home/demo/data/demo-default/band-structure-Py5xwkYHJGC89suoG/outdir/__prefix__.save/

     init_run     :      0.78s CPU      0.83s WALL (       1 calls)
     electrons    :      9.35s CPU      9.51s WALL (       1 calls)

     Called by init_run:
     wfcinit      :      0.00s CPU      0.00s WALL (       1 calls)
     potinit      :      0.04s CPU      0.04s WALL (       1 calls)
     hinit0       :      0.59s CPU      0.62s WALL (       1 calls)

     Called by electrons:
     c_bands      :      9.35s CPU      9.51s WALL (       1 calls)
     v_of_rho     :      0.03s CPU      0.04s WALL (       1 calls)
     newd         :      0.13s CPU      0.16s WALL (       1 calls)

     Called by c_bands:
     init_us_2    :      0.08s CPU      0.09s WALL (     101 calls)
     init_us_2:cp :      0.08s CPU      0.08s WALL (     101 calls)
     cegterg      :      7.70s CPU      7.83s WALL (     105 calls)

     Called by *egterg:
     cdiaghg      :      0.19s CPU      0.19s WALL (    1534 calls)
     h_psi        :      7.28s CPU      7.39s WALL (    1639 calls)
     s_psi        :      0.16s CPU      0.16s WALL (    1639 calls)
     g_psi        :      0.15s CPU      0.15s WALL (    1433 calls)

     Called by h_psi:
     h_psi:calbec :      0.18s CPU      0.18s WALL (    1639 calls)
     vloc_psi     :      6.87s CPU      6.98s WALL (    1639 calls)
     add_vuspsi   :      0.18s CPU      0.18s WALL (    1639 calls)

     General routines
     calbec       :      0.17s CPU      0.18s WALL (    1639 calls)
     fft          :      0.01s CPU      0.01s WALL (      13 calls)
     ffts         :      0.00s CPU      0.00s WALL (       1 calls)
     fftw         :      4.80s CPU      4.88s WALL (   18498 calls)
     interpolate  :      0.00s CPU      0.00s WALL (       1 calls)
     davcio       :      0.01s CPU      0.01s WALL (     202 calls)

     Parallel routines

     PWSCF        :     10.26s CPU     10.51s WALL


   This run was terminated on:  17:54: 1  13Nov2023

=------------------------------------------------------------------------------=
   JOB DONE.
=------------------------------------------------------------------------------=
