
     Program PWSCF v.7.0 starts on 13Nov2023 at 17:53:40

     This program is part of the open-source Quantum ESPRESSO suite
     for quantum simulation of materials; please cite
         "P. Giannozzi et al., J. Phys.:Condens. Matter 21 395502 (2009);
         "P. Giannozzi et al., J. Phys.:Condens. Matter 29 465901 (2017);
         "P. Giannozzi et al., J. Chem. Phys. 152 154105 (2020);
          URL http://www.quantum-espresso.org",
     in publications or presentations arising from this work. More details at
     http://www.quantum-espresso.org/quote

     Parallel version (MPI & OpenMP), running on       1 processor cores
     Number of MPI processes:                 1
     Threads/MPI process:                     1

     MPI processes distributed on     1 nodes
     143 MiB available memory on the printing compute node when the environment starts

     Reading input from pw_scf.in
Warning: card &CELL ignored
Warning: card / ignored

     Current dimensions of program PWSCF are:
     Max number of different atomic species (ntypx) = 10
     Max number of k-points (npk) =  40000
     Max angular momentum in pseudopotentials (lmaxx) =  4
     Message from routine setup:
     using ibrav=0 with symmetry is DISCOURAGED, use correct ibrav instead

     Subspace diagonalization in iterative solution of the eigenvalue problem:
     a serial algorithm will be used


     G-vector sticks info
     --------------------
     sticks:   dense  smooth     PW     G-vecs:    dense   smooth      PW
     Sum         745     583    169                13323     9409    1471

     Using Slab Decomposition



     bravais-lattice index     =            0
     lattice parameter (alat)  =       7.3076  a.u.
     unit-cell volume          =     275.9333 (a.u.)^3
     number of atoms/cell      =            2
     number of atomic types    =            1
     number of electrons       =         8.00
     number of Kohn-Sham states=            8
     kinetic-energy cutoff     =      40.0000  Ry
     charge density cutoff     =     200.0000  Ry
     scf convergence threshold =      1.0E-06
     mixing beta               =       0.3000
     number of iterations used =            8  plain     mixing
     Exchange-correlation= SLA  PW   PBE  PBE
                           (   1   4   3   4   0   0   0)

     celldm(1)=   7.307571  celldm(2)=   0.000000  celldm(3)=   0.000000
     celldm(4)=   0.000000  celldm(5)=   0.000000  celldm(6)=   0.000000

     crystal axes: (cart. coord. in units of alat)
               a(1) = (   0.866025   0.000000   0.500000 )
               a(2) = (   0.288675   0.816497   0.500000 )
               a(3) = (   0.000000   0.000000   1.000000 )

     reciprocal axes: (cart. coord. in units 2 pi/alat)
               b(1) = (  1.154701 -0.408249  0.000000 )
               b(2) = (  0.000000  1.224745  0.000000 )
               b(3) = ( -0.577350 -0.408248  1.000000 )


     PseudoPot. # 1 for Si read from file:
     /home/demo/data/demo-default/band-structure-Py5xwkYHJGC89suoG/pseudo/si_pbe_gbrv_1.0.upf
     MD5 check sum: a056efeee980c13900f22a371efd63c1
     Pseudo is Ultrasoft + core correction, Zval =  4.0
     Generated by new atomic code, or converted to UPF format
     Using radial grid of  899 points,  6 beta functions with:
                l(1) =   0
                l(2) =   0
                l(3) =   1
                l(4) =   1
                l(5) =   2
                l(6) =   2
     Q(r) pseudized with  8 coefficients,  rinner =    0.900   0.900   0.900
                                                       0.900   0.900

     atomic species   valence    mass     pseudopotential
        Si             4.00    28.08550     Si( 1.00)

      4 Sym. Ops., with inversion, found ( 2 have fractional translation)



   Cartesian axes

     site n.     atom                  positions (alat units)
         1           Si  tau(   1) = (   0.0000000   0.0000000   0.0000000  )
         2           Si  tau(   2) = (   0.2886752   0.2041241   0.5000000  )

     number of k points=     6  Gaussian smearing, width (Ry)=  0.0050
                       cart. coord. in units 2pi/alat
        k(    1) = (   0.0000000   0.0000000   0.0000000), wk =   0.2500000
        k(    2) = (   0.2886751   0.2041241  -0.5000000), wk =   0.5000000
        k(    3) = (   0.0000000  -0.6123725   0.0000000), wk =   0.2500000
        k(    4) = (   0.2886751  -0.4082484  -0.5000000), wk =   0.5000000
        k(    5) = (  -0.5773503   0.2041243   0.0000000), wk =   0.2500000
        k(    6) = (  -0.5773503  -0.4082482   0.0000000), wk =   0.2500000

     Dense  grid:    13323 G-vectors     FFT dimensions: (  36,  36,  36)

     Smooth grid:     9409 G-vectors     FFT dimensions: (  32,  32,  32)

     Estimated max dynamical RAM per process >      52.37 MB

     Initial potential from superposition of free atoms

     starting charge       7.9987, renormalised to       8.0000
     Starting wfcs are    8 randomized atomic wfcs

     total cpu time spent up to now is        1.1 secs

     Self-consistent Calculation

     iteration #  1     ecut=    40.00 Ry     beta= 0.30
     Davidson diagonalization with overlap
     ethr =  1.00E-02,  avg # of iterations =  3.2

     total cpu time spent up to now is        1.7 secs

     total energy              =     -19.01362833 Ry
     estimated scf accuracy    <       0.10289954 Ry

     iteration #  2     ecut=    40.00 Ry     beta= 0.30
     Davidson diagonalization with overlap
     ethr =  1.29E-03,  avg # of iterations =  1.0

     total cpu time spent up to now is        2.3 secs

     total energy              =     -19.00639166 Ry
     estimated scf accuracy    <       0.04365360 Ry

     iteration #  3     ecut=    40.00 Ry     beta= 0.30
     Davidson diagonalization with overlap
     ethr =  5.46E-04,  avg # of iterations =  1.0

     total cpu time spent up to now is        2.8 secs

     total energy              =     -19.00873921 Ry
     estimated scf accuracy    <       0.00050978 Ry

     iteration #  4     ecut=    40.00 Ry     beta= 0.30
     Davidson diagonalization with overlap
     ethr =  6.37E-06,  avg # of iterations =  3.0

     total cpu time spent up to now is        3.6 secs

     total energy              =     -19.00890334 Ry
     estimated scf accuracy    <       0.00007554 Ry

     iteration #  5     ecut=    40.00 Ry     beta= 0.30
     Davidson diagonalization with overlap
     ethr =  9.44E-07,  avg # of iterations =  3.2

     total cpu time spent up to now is        4.1 secs

     total energy              =     -19.00891347 Ry
     estimated scf accuracy    <       0.00000305 Ry

     iteration #  6     ecut=    40.00 Ry     beta= 0.30
     Davidson diagonalization with overlap
     ethr =  3.82E-08,  avg # of iterations =  3.0

     total cpu time spent up to now is        4.7 secs

     End of self-consistent calculation

          k = 0.0000 0.0000 0.0000 (  1243 PWs)   bands (ev):

    -5.5991   6.2691   6.2692   6.2692   8.7112   8.7112   8.7113   9.4153

          k = 0.2887 0.2041-0.5000 (  1170 PWs)   bands (ev):

    -3.3024  -0.6651   5.0607   5.0607   7.6948   9.4926   9.4927  13.8957

          k = 0.0000-0.6124 0.0000 (  1170 PWs)   bands (ev):

    -3.3024  -0.6651   5.0607   5.0607   7.6948   9.4926   9.4927  13.8957

          k = 0.2887-0.4082-0.5000 (  1162 PWs)   bands (ev):

    -1.5109  -1.5109   3.4106   3.4106   6.9195   6.9195  16.1482  16.1482

          k =-0.5774 0.2041 0.0000 (  1170 PWs)   bands (ev):

    -3.3023  -0.6652   5.0607   5.0607   7.6949   9.4927   9.4927  13.8957

          k =-0.5774-0.4082 0.0000 (  1162 PWs)   bands (ev):

    -1.5109  -1.5109   3.4106   3.4106   6.9195   6.9196  16.1482  16.1482

     the Fermi energy is     6.5834 ev

!    total energy              =     -19.00891409 Ry
     estimated scf accuracy    <       0.00000062 Ry
     smearing contrib. (-TS)   =      -0.00000000 Ry
     internal energy E=F+TS    =     -19.00891409 Ry

     The total energy is F=E-TS. E is the sum of the following terms:
     one-electron contribution =       5.04593977 Ry
     hartree contribution      =       1.30267188 Ry
     xc contribution           =      -8.67765631 Ry
     ewald contribution        =     -16.67986944 Ry

     convergence has been achieved in   6 iterations

     Forces acting on atoms (cartesian axes, Ry/au):

     atom    1 type  1   force =     0.00000096    0.00000075    0.00000000
     atom    2 type  1   force =    -0.00000096   -0.00000075    0.00000000

     Total force =     0.000002     Total SCF correction =     0.000010
     SCF correction compared to forces is large: reduce conv_thr to get better values


     Computing stress (Cartesian axis) and pressure

          total   stress  (Ry/bohr**3)                   (kbar)     P=       73.73
   0.00050116   0.00000003   0.00000000           73.72        0.00        0.00
   0.00000003   0.00050122   0.00000000            0.00       73.73        0.00
   0.00000000   0.00000000   0.00050124            0.00        0.00       73.73


     Writing all to output data dir /home/demo/data/demo-default/band-structure-Py5xwkYHJGC89suoG/outdir/__prefix__.save/

     init_run     :      0.98s CPU      1.03s WALL (       1 calls)
     electrons    :      3.32s CPU      3.55s WALL (       1 calls)
     forces       :      0.35s CPU      0.37s WALL (       1 calls)
     stress       :      1.31s CPU      1.41s WALL (       1 calls)

     Called by init_run:
     wfcinit      :      0.06s CPU      0.06s WALL (       1 calls)
     potinit      :      0.13s CPU      0.14s WALL (       1 calls)
     hinit0       :      0.63s CPU      0.65s WALL (       1 calls)

     Called by electrons:
     c_bands      :      1.06s CPU      1.13s WALL (       6 calls)
     sum_band     :      1.22s CPU      1.31s WALL (       6 calls)
     v_of_rho     :      0.22s CPU      0.24s WALL (       7 calls)
     newd         :      0.98s CPU      1.06s WALL (       7 calls)
     mix_rho      :      0.01s CPU      0.01s WALL (       6 calls)

     Called by c_bands:
     init_us_2    :      0.08s CPU      0.08s WALL (      90 calls)
     init_us_2:cp :      0.08s CPU      0.08s WALL (      90 calls)
     cegterg      :      0.73s CPU      0.78s WALL (      36 calls)

     Called by *egterg:
     cdiaghg      :      0.01s CPU      0.01s WALL (     122 calls)
     h_psi        :      0.70s CPU      0.75s WALL (     128 calls)
     s_psi        :      0.01s CPU      0.02s WALL (     128 calls)
     g_psi        :      0.01s CPU      0.01s WALL (      86 calls)

     Called by h_psi:
     h_psi:calbec :      0.02s CPU      0.02s WALL (     128 calls)
     vloc_psi     :      0.66s CPU      0.70s WALL (     128 calls)
     add_vuspsi   :      0.02s CPU      0.02s WALL (     128 calls)

     General routines
     calbec       :      0.03s CPU      0.03s WALL (     194 calls)
     fft          :      0.08s CPU      0.09s WALL (     114 calls)
     ffts         :      0.01s CPU      0.01s WALL (      13 calls)
     fftw         :      0.53s CPU      0.57s WALL (    1914 calls)
     interpolate  :      0.01s CPU      0.01s WALL (       7 calls)

     Parallel routines

     PWSCF        :      6.03s CPU      6.44s WALL


   This run was terminated on:  17:53:47  13Nov2023

=------------------------------------------------------------------------------=
   JOB DONE.
=------------------------------------------------------------------------------=
