ITEM: TIMESTEP
0
ITEM: NUMBER OF ATOMS
915
ITEM: BOX BOUNDS pp pp ff
0.0000000000000000e+00 1.6869000000000000e+01
0.0000000000000000e+00 1.4609000000000000e+01
0.0000000000000000e+00 4.1478000000000002e+01
ITEM: ATOMS id element xu yu zu fx fy fz q
1 Pt           1.40569997           0.81160003          35.73899841 -0.00028539202875734 -0.00700338227203473  -0.0131067415552336  -0.0315328850829782
2 Pt            4.2171998           0.81160003          35.73899841  0.00521997945222105 -0.00794960607650073 -0.00872819780233065  -0.0284221713878863
3 Pt           7.02859974           0.81160003          35.73899841 -0.00389630795158157 -0.00207819780001485  -0.0108084231270615   -0.031904296747516
4 Pt           9.84009933           0.81160003          35.73899841 -0.000994055397666268  0.00453823239496063  -0.0146022661284556  -0.0341947613713539
5 Pt          12.65159988           0.81160003          35.73899841 0.000218635117828473 7.29727383001097e-05 -0.00222513586686154  -0.0134746040737527
6 Pt          15.46299934           0.81160003          35.73899841  0.00188496341461725 -0.00404877107386199 -0.00991628693446792  -0.0292387361588334
7 Pt                    0           3.24640012          35.73899841   0.0019632705739094  0.00161456719429946  -0.0040854687105175    0.018714403880646
8 Pt           2.81149983           3.24640012          35.73899841 0.000434458317711192 -0.00155332745688706  -0.0727743186502586   0.0712050878847375
9 Pt           5.62290001           3.24640012          35.73899841  0.00166340054572876  0.00181935155316814 -0.00263445820326521  -0.0154681371223208
10 Pt            8.4343996           3.24640012          35.73899841  0.00169836908999264 -0.00151221785293278 -0.00998311503183458  -0.0296387905053306
11 Pt          11.24580002           3.24640012          35.73899841 -0.00155693867933082 0.000190278577566658 -0.00629555881885927   -0.024706075593753
12 Pt          14.05730057           3.24640012          35.73899841 -0.000864253673173673 0.000840195165454442 -0.00185391536844479  -0.0126580854401896
13 Pt           1.40569997           5.68120003          35.73899841 0.000966085616915755 -0.00140045419922488  -0.0033714973005088   0.0172520562503275
14 Pt            4.2171998           5.68120003          35.73899841 0.000706326375255993 -0.000391086390398684 -0.000143435975499064 -0.00335083728927502
15 Pt           7.02859974           5.68120003          35.73899841 -0.00127352110819313 -0.00181292289271797 -0.00119505385925026  -0.0108381763843848
16 Pt           9.84009933           5.68120003          35.73899841  0.00857974073419439  0.00131882117101662  -0.0107635634563496  -0.0311665698034235
17 Pt          12.65159988           5.68120003          35.73899841 -0.00548325721179773 0.000888637603257994  -0.0193298797859193  -0.0422180230651694
18 Pt          15.46299934           5.68120003          35.73899841 -0.000693326893320443  0.00195370337616811 -0.00236464230479755  -0.0151889166243989
19 Pt                    0           8.11599922          35.73899841 -0.00570837003727247 -0.00265418338042375 -0.00557292712774886  -0.0203758723313355
20 Pt           2.81149983           8.11599922          35.73899841  0.00316544169116057  0.00886163307770549  -0.0664026856596176   0.0706985256321362
21 Pt           5.62290001           8.11599922          35.73899841 -0.000312314588898139  0.00307346224094545  -0.0107784762674813   0.0308884032586491
22 Pt            8.4343996           8.11599922          35.73899841 -0.00608690397982745  0.00456044500195499  -0.0523531607578976   0.0604382411262828
23 Pt          11.24580002           8.11599922          35.73899841  0.00234435429116122 -0.00420141557640838 -0.00718490649063147  -0.0262986833648713
24 Pt          14.05730057           8.11599922          35.73899841  0.00226283843442419 0.000374537755375945  -0.0106348900608516  -0.0315377861158425
25 Pt           1.40569997          10.55079937          35.73899841   0.0090956815906669  0.00136063725751381  -0.0735257867597615   0.0747174651042143
26 Pt            4.2171998          10.55079937          35.73899841 -0.00907341132756755 -0.00236734393608273  -0.0377480814168561   0.0552289513119329
27 Pt           7.02859974          10.55079937          35.73899841 0.000194672599179336 0.000307664257597514 -5.13005811820184e-05 -0.00146307671528011
28 Pt           9.84009933          10.55079937          35.73899841  0.00135039702780962  0.00290864824351881 -0.00460507458819961  -0.0207174352337399
29 Pt          12.65159988          10.55079937          35.73899841 -0.00394615142103169 -0.000581477432705151  -0.0171831810083698  -0.0377642194240437
30 Pt          15.46299934          10.55079937          35.73899841 -0.00549603665373703 -0.00134097220232277  -0.0174595510035517  -0.0351972805422569
31 Pt                    0          12.98560047          35.73899841 -0.00185874931024185  0.00403805717381325 -0.00297867215214791  -0.0165134099700969
32 Pt           2.81149983          12.98560047          35.73899841 -0.000103027197796321 -0.000756792896326192 -0.000126383885324683   0.0026846556594939
33 Pt           5.62290001          12.98560047          35.73899841 -0.000648171371188943  0.00872998455245495  -0.0157751920363212  -0.0371581187717877
34 Pt            8.4343996          12.98560047          35.73899841 -0.00034967328103184 -0.00133693218705253  -0.0045782679948255   -0.020883612324548
35 Pt          11.24580002          12.98560047          35.73899841 -0.00038346373407556 -0.000625201602194087 -0.00199133957093693  -0.0138156340212263
36 Pt          14.05730057          12.98560047          35.73899841  0.00126679872874726 -8.54854337301663e-05 -0.00389922780613934  -0.0188708632453405
37 Pt                    0           1.62320006          38.03450012 3.63489368846747e-07 -6.69525529349709e-06 -6.7947474352698e-06 0.000738091128101228
38 Pt           2.81149983           1.62320006          38.03450012 8.03366250074432e-09 -4.00198541205167e-07 -7.06241071066182e-08 1.90578786262278e-05
39 Pt           5.62290001           1.62320006          38.03450012 8.62426752066249e-07 2.68716082460005e-06 -1.13282443107535e-05  0.00104507378568668
40 Pt            8.4343996           1.62320006          38.03450012 -2.42704699372554e-06 -4.63748131463849e-06 -2.85583892087841e-05  0.00169667547150198
41 Pt          11.24580002           1.62320006          38.03450012 -2.93827648120225e-06 -3.0484464288082e-06 -1.74996059526965e-05  0.00128646739669058
42 Pt          14.05730057           1.62320006          38.03450012 3.63722552999607e-06 -2.01900772463428e-06 -1.80602244027959e-05  0.00123951197624393
43 Pt           1.40569997           4.05799961          38.03450012 2.32876829441429e-05 -1.26379737664393e-05 -3.16801951042002e-05 -0.00182563790954056
44 Pt            4.2171998           4.05799961          38.03450012 -2.19514952304215e-05 -6.16017467711035e-06 -2.38935812779131e-05 -0.00149475162485765
45 Pt           7.02859974           4.05799961          38.03450012 5.39015635797966e-06 -2.87753188621008e-06 -3.46804033907654e-06 0.000697835919996258
46 Pt           9.84009933           4.05799961          38.03450012 -6.12407886580285e-06 4.04701941117172e-06 -1.89447592774048e-05  0.00139844924956349
47 Pt          12.65159988           4.05799961          38.03450012 -1.27330277100977e-06 5.55426463313551e-06 -1.52282224670867e-05   0.0012231488665926
48 Pt          15.46299934           4.05799961          38.03450012 -2.4411229877028e-06 1.74174854234606e-06 -2.45527947620134e-06 0.000441703077250563
49 Pt                    0           6.49280024          38.03450012 6.82917828628795e-07 -3.28472435543577e-07 -6.06437648464548e-07 -0.000167519112636072
50 Pt           2.81149983           6.49280024          38.03450012 -6.73282339071325e-06 2.63929237059782e-05 -3.05502719311089e-05  -0.0017307526678736
51 Pt           5.62290001           6.49280024          38.03450012  -1.258363950028e-06 5.30740186300208e-06 -1.13220965411519e-05 -0.000977909332332538
52 Pt            8.4343996           6.49280024          38.03450012 -7.09013829253832e-07 6.82800664144304e-06 -1.32227161615946e-07 -0.000298201920347158
53 Pt          11.24580002           6.49280024          38.03450012 1.66329617747931e-06 -9.35255647593966e-07 6.86670928953305e-07 0.000399040463661908
54 Pt          14.05730057           6.49280024          38.03450012 -9.81614704360178e-06 -1.77551587570762e-06 -2.14543312859751e-05  0.00138613999977378
55 Pt           1.40569997           8.92759991          38.03450012 4.50122162900065e-05 2.65876399049538e-05 -4.50690240700261e-05 -0.00223939640667944
56 Pt            4.2171998           8.92759991          38.03450012 -3.10389830347418e-05 1.75688625594673e-06 -8.37779540044869e-05 -0.00290385754618176
57 Pt           7.02859974           8.92759991          38.03450012 9.96553789422028e-06 -1.65426925778966e-05 -1.38722615266524e-05 -0.00135918343430456
58 Pt           9.84009933           8.92759991          38.03450012 -3.60867785721614e-06 -2.24485772882948e-06 4.17839474913308e-07 -0.000198515547122881
59 Pt          12.65159988           8.92759991          38.03450012 1.73066795707493e-06 5.22129215545826e-06 -3.33471281173909e-05  0.00180008657824777
60 Pt          15.46299934           8.92759991          38.03450012 -2.01943493499015e-06 7.29836298788965e-06 -1.15396849367188e-05  0.00117280161976937
61 Pt                    0          11.36240005          38.03450012 -2.65840349989426e-06 9.90960199804818e-07 -4.5798538151126e-07 0.000122584181195096
62 Pt           2.81149983          11.36240005          38.03450012 -7.24764052311483e-06 -3.16104179720286e-05 -2.93291194866874e-05 -0.00192086147521607
63 Pt           5.62290001          11.36240005          38.03450012 -1.60677760721267e-06 -2.07892236448346e-06 -1.27776228273644e-07 -0.000152507028077409
64 Pt            8.4343996          11.36240005          38.03450012 3.06606400601336e-07 2.73154282445353e-07 2.17846662695356e-07 0.000118008279010243
65 Pt          11.24580002          11.36240005          38.03450012  4.1365620098791e-06 -3.46494386747573e-06 -5.96094390193247e-06  0.00090767729176876
66 Pt          14.05730057          11.36240005          38.03450012 -9.22912015090767e-07 -8.25739723995296e-06 -3.73913761745559e-05  0.00192704527244831
67 Pt           1.40569997          13.79719925          38.03450012 -5.69740804819821e-07 6.35317823388669e-07 1.87516358308524e-07 0.000203337129918176
68 Pt            4.2171998          13.79719925          38.03450012 -3.68392767367711e-08 7.50982754188241e-09 -4.63983324635113e-08 -9.57161101487888e-06
69 Pt           7.02859974          13.79719925          38.03450012 2.61633188903859e-06 -1.32850337412342e-06 -1.27745073819864e-05  0.00117865859642543
70 Pt           9.84009933          13.79719925          38.03450012 -2.69340135934187e-06 1.02503810208948e-05 -2.78702101950793e-05  0.00156536073432075
71 Pt          12.65159988          13.79719925          38.03450012  2.1140576364714e-07 -6.87843451142082e-07 -1.4879986644371e-05  0.00114871296591584
72 Pt          15.46299934          13.79719925          38.03450012 -1.54994150483882e-06 2.48799975819673e-07 -1.26458436140148e-06 0.000564233709056075
73 Pt                    0                    0          40.33010101 1.49188172039246e-09 -8.26990767948626e-10 -1.67001375488437e-09 1.12442056711141e-05
74 Pt           2.81149983                    0          40.33010101 -2.48027398539565e-10 3.87163890924132e-10 -1.72187839881334e-08  3.7429692850341e-05
75 Pt           5.62290001                    0          40.33010101 4.38612629676597e-09 3.41766782321566e-09 -2.44196830719773e-09 -1.45975610695097e-05
76 Pt            8.4343996                    0          40.33010101 1.89360322767138e-09 1.54760244997765e-09 -2.10207291190052e-08 -4.81110749454159e-05
77 Pt          11.24580002                    0          40.33010101 1.38505351175036e-09  -6.329770580245e-09 -4.05855302663951e-08 -6.29507201621137e-05
78 Pt          14.05730057                    0          40.33010101 -9.34113337390806e-09  3.1817116919742e-09 -1.51669194049058e-08 -3.91024524101364e-05
79 Pt           1.40569997           2.43479991          40.33010101 7.81501765524495e-09  -2.775039372597e-09 -2.18657256267023e-08 -3.96837089615574e-05
80 Pt            4.2171998           2.43479991          40.33010101 -7.9150254373943e-09 -4.84450164147305e-09 -9.45291528669015e-09 -2.66252363591318e-05
81 Pt           7.02859974           2.43479991          40.33010101 3.51068562099531e-09 -6.21681135186935e-09 -7.6621943006484e-09 -2.93826590802552e-05
82 Pt           9.84009933           2.43479991          40.33010101 1.51132868102098e-09 2.50012756226301e-09 -4.73343260154136e-08 -6.57879160717421e-05
83 Pt          12.65159988           2.43479991          40.33010101 -1.03277479847903e-09 -1.48884517248953e-09 -6.91416699334219e-08 -7.74129852437634e-05
84 Pt          15.46299934           2.43479991          40.33010101 -1.34208262623808e-09 6.85758312820935e-10 -3.10094505749305e-08 -5.10840254937776e-05
85 Pt                    0           4.86959982          40.33010101 1.38925848704589e-08 8.65623491416644e-10 -1.19490661764491e-08 3.16870820381752e-05
86 Pt           2.81149983           4.86959982          40.33010101 2.42399783339222e-09 3.10403767739774e-08 -2.90379651876583e-08 5.47262193715192e-05
87 Pt           5.62290001           4.86959982          40.33010101 -2.80188622620691e-08 1.00678924554135e-08 -4.11999994539004e-08  6.1546414044579e-05
88 Pt            8.4343996           4.86959982          40.33010101 -2.05470510698965e-09 7.92909729149211e-09 -1.3683152365335e-08 2.77694713046303e-05
89 Pt          11.24580002           4.86959982          40.33010101  -5.900436184981e-10 -7.4899003469523e-09 -3.67188648287445e-09 -1.75461319844021e-05
90 Pt          14.05730057           4.86959982          40.33010101 -5.32547030095924e-10  1.1058303847836e-09 -9.59763359036632e-09 -3.20631768590777e-05
91 Pt           1.40569997           7.30439949          40.33010101 -8.10318123949535e-09 8.53654484079246e-09 -2.96372130979882e-08 5.65347935680464e-05
92 Pt            4.2171998           7.30439949          40.33010101 9.47357754252542e-09 1.59887478859594e-09 -4.96269313346076e-08 7.40979375991502e-05
93 Pt           7.02859974           7.30439949          40.33010101 1.23134474144685e-08 4.06783948405076e-09 -8.38097196314855e-09 -2.07828476981231e-05
94 Pt           9.84009933           7.30439949          40.33010101 -1.99383548217102e-08 1.74516775970078e-08 -3.18463063965393e-08 -4.74877573514308e-05
95 Pt          12.65159988           7.30439949          40.33010101 9.27315004871506e-09 1.03930328094403e-08 -9.15159250074427e-09 -3.02936250625168e-05
96 Pt          15.46299934           7.30439949          40.33010101 -1.57556856586334e-08 6.90313774500787e-10 -1.31731945644033e-08 -3.20684776748857e-05
97 Pt                    0           9.73919964          40.33010101 9.51489874964708e-10 -5.70785928972128e-09 -1.84182415022713e-09 1.22188179534295e-05
98 Pt           2.81149983           9.73919964          40.33010101 -4.39551500803953e-09   2.375960684391e-09 -5.81938535468239e-09 -1.33075193289912e-05
99 Pt           5.62290001           9.73919964          40.33010101 -4.03240255041038e-09 -2.89148527993009e-08 -3.77850785130279e-08 5.95798409027918e-05
100 Pt            8.4343996           9.73919964          40.33010101 4.18575187777227e-09 -9.16675421187599e-09 -6.2335691849479e-09 -2.02630807450254e-05
101 Pt          11.24580002           9.73919964          40.33010101 -3.06720474901706e-10 5.77223246992478e-11 -1.39228502913631e-10 9.32653283380338e-07
102 Pt          14.05730057           9.73919964          40.33010101 -8.31415736522137e-09 -2.2789762336005e-09 -1.46879055582823e-08 -4.24963880533217e-05
103 Pt           1.40569997          12.17399979          40.33010101 -3.59061184230489e-09 -3.13921351759846e-09 -1.93682739605183e-09 -9.99715226867502e-06
104 Pt            4.2171998          12.17399979          40.33010101 -9.67583714543276e-09 7.68900122197343e-09 -2.44199984918637e-08 4.59264857325916e-05
105 Pt           7.02859974          12.17399979          40.33010101 -3.22511881409397e-09 -5.01244120668906e-09 -6.70664955868422e-09 2.15489503670208e-05
106 Pt           9.84009933          12.17399979          40.33010101 8.98847139777422e-09  1.4943152448354e-08 -1.97252640546894e-08 -3.95533879793381e-05
107 Pt          12.65159988          12.17399979          40.33010101 8.35693593992796e-09 5.56420809658147e-09 -2.94806339185794e-08 -5.43289703235409e-05
108 Pt          15.46299934          12.17399979          40.33010101 -6.83042566074015e-10 1.49351008511615e-11 2.11385353484008e-10 -1.79404383426223e-06
109 Pt           1.40569997           0.81160003           1.14759994 1.40783392426206e-08 -2.40214650381312e-08 1.72547571539833e-08 3.47209622212981e-05
110 Pt            4.2171998           0.81160003           1.14759994 -1.48873236486329e-10 -1.18890185440653e-08  4.2852647675427e-09 2.16835152360036e-05
111 Pt           7.02859974           0.81160003           1.14759994 4.26509318046718e-09 -1.15911149401372e-08 8.73541236280266e-08 8.41648585691549e-05
112 Pt           9.84009933           0.81160003           1.14759994 -3.22520695730376e-09 -5.21280430009794e-09 5.21169462566108e-09 1.95849176068143e-05
113 Pt          12.65159988           0.81160003           1.14759994 9.81342203488253e-09 1.35106776887879e-08 1.25934108584734e-08 -3.64744609690677e-05
114 Pt          15.46299934           0.81160003           1.14759994 1.83723962590026e-10 1.42663801652336e-09 -1.74812127701253e-09 -1.17551956799813e-05
115 Pt                    0           3.24640012           1.14759994 9.63298743214152e-09 -5.45661915855648e-09 1.14537130281493e-08 -4.35703398697783e-05
116 Pt           2.81149983           3.24640012           1.14759994 -3.44810276114254e-09 1.39799828623046e-08 2.63928844019206e-08 -5.41186923292678e-05
117 Pt           5.62290001           3.24640012           1.14759994  2.8760240341712e-08  2.0287338199704e-09 2.99631385889223e-08 4.45306580531912e-05
118 Pt            8.4343996           3.24640012           1.14759994 2.65482987568822e-09 -1.4440365774881e-09 3.09019445845591e-09 1.98024944604615e-05
119 Pt          11.24580002           3.24640012           1.14759994 -3.9685600443722e-09 2.09044764631433e-09 1.42392623114746e-09 1.22227987092161e-05
120 Pt          14.05730057           3.24640012           1.14759994  9.0443263534476e-09 -8.8176190018495e-09 6.28386406444687e-09 -3.05104949187241e-05
121 Pt           1.40569997           5.68120003           1.14759994 1.03266633386306e-08 -1.01718639416803e-08 1.66679147772841e-08 -4.33429182210856e-05
122 Pt            4.2171998           5.68120003           1.14759994 1.52424894105283e-08 4.36975459345025e-09 1.14708544483472e-08 2.58892884898421e-05
123 Pt           7.02859974           5.68120003           1.14759994 -4.40873628058813e-09 1.37777317487131e-08 5.44844520108895e-09 3.13802466731911e-05
124 Pt           9.84009933           5.68120003           1.14759994 4.28394666369938e-09  1.5384373703344e-08 5.27766324265904e-09 3.82976614881549e-05
125 Pt          12.65159988           5.68120003           1.14759994 -8.45398497529631e-09 7.44671304059268e-09 3.39375358439981e-09 2.30271330260482e-05
126 Pt          15.46299934           5.68120003           1.14759994 -1.57499080646499e-09 -9.69075118129575e-09 1.45747981214543e-08 -3.7625149524829e-05
127 Pt                    0           8.11599922           1.14759994 -1.42294306171919e-09 -4.13978732477814e-11 8.54430857120027e-10 -1.14447600040597e-05
128 Pt           2.81149983           8.11599922           1.14759994 2.97075013237907e-10 1.97533716093151e-09 3.18460261647136e-09 1.33460302067694e-05
129 Pt           5.62290001           8.11599922           1.14759994 3.52030594143945e-08 5.85213380205302e-09  1.4701808868543e-07 0.000109417915127982
130 Pt            8.4343996           8.11599922           1.14759994  4.9813479402834e-08 -3.41175065279419e-08   1.737974222022e-07 0.000127797559889191
131 Pt          11.24580002           8.11599922           1.14759994 -3.53704962639963e-08 -4.75510550692206e-08 1.66834777991989e-07 0.000128061919619016
132 Pt          14.05730057           8.11599922           1.14759994 -3.93324768149065e-08 1.70345369068487e-08 6.25145055992678e-08  6.7877873644555e-05
133 Pt           1.40569997          10.55079937           1.14759994 1.44381750483874e-10 3.35168330066194e-11 -6.36534856774935e-11 3.96661299085317e-07
134 Pt            4.2171998          10.55079937           1.14759994 -5.62630335932481e-09 -8.44059631741627e-10 8.41081568754657e-09 3.15283849682674e-05
135 Pt           7.02859974          10.55079937           1.14759994 -2.63185862506945e-08 1.10360811439408e-08 9.88833522855719e-08 9.30818101866609e-05
136 Pt           9.84009933          10.55079937           1.14759994 -1.03218478477792e-08 -3.38430774048619e-09 2.02967097211895e-08 5.10863028478198e-05
137 Pt          12.65159988          10.55079937           1.14759994 1.59463109302248e-10 -3.56253443522035e-10 -3.30670712613129e-10  2.2840928774082e-06
138 Pt          15.46299934          10.55079937           1.14759994 8.92076648765129e-09 1.59323807562718e-08 2.22720470181871e-08   3.900459130621e-05
139 Pt                    0          12.98560047           1.14759994 -4.22433834021404e-10 -3.46409751388746e-10 7.71656599941417e-10 -4.29733478245122e-06
140 Pt           2.81149983          12.98560047           1.14759994 -2.67082670276792e-10 -2.31568540314937e-09 4.47733903443844e-09 -1.00659046284814e-05
141 Pt           5.62290001          12.98560047           1.14759994 5.86728230266334e-09 3.17914082415369e-09 -6.11770345891451e-10 1.50270572700408e-05
142 Pt            8.4343996          12.98560047           1.14759994 -2.25269190728855e-08 -2.19442608849808e-08  1.1271200896243e-07  9.9768479769054e-05
143 Pt          11.24580002          12.98560047           1.14759994 -6.41533592439608e-09 -1.5916321333499e-08 1.89129331053905e-08 3.99671894665006e-05
144 Pt          14.05730057          12.98560047           1.14759994 4.52880834337896e-10  2.5799861294893e-10 4.79223632086868e-11 -3.50385842427217e-06
145 Pt                    0           1.62320006           3.44320011 -2.95053508836908e-05 6.12448586961234e-06 6.39658966371817e-05  0.00264378478522886
146 Pt           2.81149983           1.62320006           3.44320011 2.92565957374373e-06 -8.07462315345815e-07 7.67667357354807e-07 -0.000239490515076016
147 Pt           5.62290001           1.62320006           3.44320011 -4.89919924571677e-06 -2.03819459471425e-06 2.78257106082396e-06 -0.000456131993926096
148 Pt            8.4343996           1.62320006           3.44320011 -1.70430901216594e-06 -1.97629041077604e-06 2.17039489840097e-07 0.000243748222636238
149 Pt          11.24580002           1.62320006           3.44320011 5.77926545599333e-07 -5.72141214306246e-07 5.72660110561403e-07 0.000157275138448828
150 Pt          14.05730057           1.62320006           3.44320011 3.87196225657482e-05 -1.14820565575946e-05 5.88606485997794e-05  0.00242393104221771
151 Pt           1.40569997           4.05799961           3.44320011 -1.42675482138887e-05 5.80793425814508e-07  4.7285695074157e-05  0.00218056347158234
152 Pt            4.2171998           4.05799961           3.44320011 -1.15825963026435e-06 5.65834450692542e-06 2.98716667057584e-06 0.000507685212489732
153 Pt           7.02859974           4.05799961           3.44320011 1.85392243059528e-05 1.37512110061673e-05 6.81242780156518e-06 -0.000891657510254015
154 Pt           9.84009933           4.05799961           3.44320011 -3.26066543691091e-06 4.46463694570479e-05 7.73794847063795e-05 -0.00301553772138091
155 Pt          12.65159988           4.05799961           3.44320011 -2.06637460131876e-05 1.10745477492178e-05 1.20581755925947e-05 -0.00119676568261643
156 Pt          15.46299934           4.05799961           3.44320011 2.32714040163273e-05 -1.79776384811555e-05 3.93146757405304e-05  0.00210416283369795
157 Pt                    0           6.49280024           3.44320011 4.53480154379361e-06 -7.37803110805024e-06 1.08918517512267e-05  0.00125653869184998
158 Pt           2.81149983           6.49280024           3.44320011 -2.73834628801104e-06 4.30399110800864e-06 2.31798173571498e-05  0.00155751859752239
159 Pt           5.62290001           6.49280024           3.44320011  9.5879332809568e-06 3.84893403439144e-07 1.32283365855485e-05 -0.000874641291017906
160 Pt            8.4343996           6.49280024           3.44320011 1.77902337881965e-05 -3.32984775888759e-05 8.04586991761986e-05 -0.00299027274310983
161 Pt          11.24580002           6.49280024           3.44320011 -2.64467018437821e-05 -2.7003139857176e-05 9.33358239945518e-05 -0.00311737477791501
162 Pt          14.05730057           6.49280024           3.44320011 2.78649387522971e-06 3.68012845200157e-07 1.76589579188315e-06 0.000389519227702933
163 Pt           1.40569997           8.92759991           3.44320011 6.45933978228434e-08 -7.79369605624321e-07 7.20364976009805e-08 5.48717084283777e-05
164 Pt            4.2171998           8.92759991           3.44320011 2.87382004232954e-07 -1.18983197524546e-06 -6.05519675218532e-09 0.000115513843112093
165 Pt           7.02859974           8.92759991           3.44320011 4.50031186495912e-05 1.13410711733692e-05 5.25114134449524e-05 -0.00221933197274321
166 Pt           9.84009933           8.92759991           3.44320011 1.02449504261427e-05 4.43835567990771e-05 0.000220849234227278 -0.00478365713205958
167 Pt          12.65159988           8.92759991           3.44320011 -5.52279024203828e-05 2.93791348274683e-05 7.68945332240771e-05 -0.00277649501830363
168 Pt          15.46299934           8.92759991           3.44320011 -5.53123961808255e-07 -2.83487695462143e-06  1.7179910635303e-06 0.000360773515977499
169 Pt                    0          11.36240005           3.44320011 3.99900103940448e-05 1.09755087168385e-05  2.4318367897382e-05 -0.00163264466919022
170 Pt           2.81149983          11.36240005           3.44320011 -1.5667137418422e-06  5.7355551182498e-05 0.000100766649481712 -0.00347282771028876
171 Pt           5.62290001          11.36240005           3.44320011 -2.54806907382714e-05 1.75316950370846e-05  1.8835061937766e-05 -0.00152109642198102
172 Pt            8.4343996          11.36240005           3.44320011 8.10649187394555e-07 -3.75356028493756e-05  5.9219566978061e-05 -0.00242237546761019
173 Pt          11.24580002          11.36240005           3.44320011 -4.35855148396009e-07 -4.40152795088055e-05 3.01842345469419e-05 -0.00193713326903897
174 Pt          14.05730057          11.36240005           3.44320011 1.37339329454765e-07 9.29766302226159e-08  1.4171703138507e-08 1.90627813453755e-05
175 Pt           1.40569997          13.79719925           3.44320011 1.72942744431084e-05 -4.25368902898823e-05 3.24318597877533e-05 -0.00176941223025438
176 Pt            4.2171998          13.79719925           3.44320011 1.46825667331162e-06 -3.46939238084995e-05 2.86093873355624e-05 -0.00194203711097562
177 Pt           7.02859974          13.79719925           3.44320011 -7.10311915209268e-06 -7.65243610705419e-06  2.0913402848952e-05 -0.00121736112372027
178 Pt           9.84009933          13.79719925           3.44320011   1.045376809505e-07 -1.61681728603653e-06 7.58299220107191e-07 -0.000182795177228064
179 Pt          12.65159988          13.79719925           3.44320011 3.18121149736203e-06 2.68564824190662e-06 7.64371927210851e-07 0.000415151194751992
180 Pt          15.46299934          13.79719925           3.44320011 -3.28446664114423e-06 1.84423909955505e-05 2.33105072414814e-05  0.00161099734306541
181 Pt                    0                    0           5.73869991 0.000362544755749045  0.00495828521112497   0.0229940007154043   -0.044521205051349
182 Pt           2.81149983                    0           5.73869991  0.00191294175761412 -0.00139850389561206  0.00103531525048025  0.00992635016382356
183 Pt           5.62290001                    0           5.73869991 -0.00308935872126915 -0.00081028500048914  0.00421118289807076   0.0181133844698836
184 Pt            8.4343996                    0           5.73869991 -0.00222504526172047 -0.00539166483558433   0.0101077090743846  -0.0313711613451744
185 Pt          11.24580002                    0           5.73869991 0.000884361376112218 -0.000878533449724719 0.000721961294780733 -0.00936892809701938
186 Pt          14.05730057                    0           5.73869991 -0.000484022416469494 -0.00223626640297828    0.029685734995604  -0.0498595630436569
187 Pt           1.40569997           2.43479991           5.73869991 -0.00633362826330971 -0.000551693218884418   0.0146554972890423  -0.0361486722285707
188 Pt            4.2171998           2.43479991           5.73869991 0.000154274630227015 -0.000583284550063979   0.0169072062096378   0.0349564488765193
189 Pt           7.02859974           2.43479991           5.73869991  0.00179756903861213  -0.0021733908301653  0.00580412034295744  -0.0187261714639549
190 Pt           9.84009933           2.43479991           5.73869991  0.00232090348846774  0.00425416615170341  0.00556450316249142   0.0227650092238947
191 Pt          12.65159988           2.43479991           5.73869991 0.000724535793833524 -0.000341980069623138 0.000154475995319359 -0.00382878605184024
192 Pt          15.46299934           2.43479991           5.73869991  0.00247242209497463   0.0116388305266425   0.0629635580848227  -0.0704613814769936