LAMMPS (17 Apr 2024)
OMP_NUM_THREADS environment is not set. Defaulting to 1 thread. (src/comm.cpp:98)
  using 1 OpenMP thread(s) per MPI task
variable        DT              equal 0.0
variable        ETA             equal 1.6

# ----------------- Init Section -----------------

units           metal
boundary        p p f
atom_style      full

pair_style      coul/long 5.0
kspace_style    pppm/electrode 1.0e-6
kspace_modify   gewald 0.5 slab 3.0

# ----------------- Atom Definition Section -----------------

read_data       system.data
Reading data file ...
  orthogonal box = (0 0 0) to (16.869 14.609 41.478)
  1 by 1 by 1 MPI processor grid
  reading atoms ...
  915 atoms
Finding 1-2 1-3 1-4 neighbors ...
  special bond factors lj:    0        0        0       
  special bond factors coul:  0        0        0       
     0 = max # of 1-2 neighbors
     0 = max # of 1-3 neighbors
     0 = max # of 1-4 neighbors
     1 = max # of special neighbors
  special bonds CPU = 0.001 seconds
  read_data CPU = 0.003 seconds
restart         100000 system.restart

# ----------------- Force Field Section -----------------

pair_coeff      * *

mass            1 16.0
mass            2 1.0
mass            3 195.0

#----------------- Def groups and variables -----------------

group           slab type 3
216 atoms in group slab

# ----------------- Normal setting -----------------

neighbor        2.0 bin
neigh_modify    every 10 delay 0 check no

fix             fconq slab electrode/conq ${DT} ${ETA}
fix             fconq slab electrode/conq 0 ${ETA}
fix             fconq slab electrode/conq 0 1.6
216 atoms in group conp_group

dump            traj all custom 1 dump.lammpstrj id element xu yu zu fx fy fz q
dump_modify     traj element O H Pt sort id format float %20.15g

run             0

CITE-CITE-CITE-CITE-CITE-CITE-CITE-CITE-CITE-CITE-CITE-CITE-CITE

Your simulation uses code contributions which should be cited:

- kspace_style pppm/electrode command:

@article{Ahrens2021,
author = {Ahrens-Iwers, Ludwig J.V. and Mei{\ss}ner, Robert H.},
doi = {10.1063/5.0063381},
title = {{Constant potential simulations on a mesh}},
journal = {Journal of Chemical Physics},
year = {2021}
volume = {155},
pages = {104104},
}
- fix electrode command:

@article{Ahrens2022
author = {Ahrens-Iwers, Ludwig J.V. and Janssen, Mahijs and Tee, Shern R. and Mei{\ss}ner, Robert H.},
doi = {10.1063/5.0099239},
title = {{ELECTRODE: An electrochemistry package for LAMMPS}},
journal = {The Journal of Chemical Physics},
year = {2022}
volume = {157},
pages = {084801},
}
CITE-CITE-CITE-CITE-CITE-CITE-CITE-CITE-CITE-CITE-CITE-CITE-CITE

WARNING: No fixes with time integration, atoms won't move (src/verlet.cpp:60)
PPPM/electrode initialization ...
  using 12-bit tables for long-range coulomb (src/kspace.cpp:342)
  G vector (1/distance) = 0.5
  grid = 36 32 160
  stencil order = 5
  estimated absolute RMS force accuracy = 0.0018185164
  estimated relative force accuracy = 0.00012628897
  using double precision KISS FFT
  3d grid and FFT values/proc = 300735 184320
Generated 0 of 3 mixed pair_coeff terms from geometric mixing rule
Neighbor list info ...
  update: every = 10 steps, delay = 0 steps, check = no
  max neighbors/atom: 2000, page size: 100000
  master list distance cutoff = 7
  ghost atom cutoff = 7
  binsize = 3.5, bins = 5 5 12
  2 neighbor lists, perpetual/occasional/extra = 2 0 0
  (1) pair coul/long, perpetual
      attributes: half, newton on
      pair build: half/bin/newton
      stencil: half/bin/3d
      bin: standard
  (2) fix electrode/conq, perpetual, copy from (1)
      attributes: half, newton on
      pair build: copy
      stencil: none
      bin: none
Per MPI rank memory allocation (min/avg/max) = 34.62 | 34.62 | 34.62 Mbytes
   Step          Temp          E_pair         E_mol          TotEng         Press     
         0   0             -1943.6576      0             -1943.6576     -101553.25    
Loop time of 1.86e-06 on 1 procs for 0 steps with 915 atoms

161.3% CPU use with 1 MPI tasks x 1 OpenMP threads

MPI task timing breakdown:
Section |  min time  |  avg time  |  max time  |%varavg| %total
---------------------------------------------------------------
Pair    | 0          | 0          | 0          |   0.0 |  0.00
Bond    | 0          | 0          | 0          |   0.0 |  0.00
Kspace  | 0          | 0          | 0          |   0.0 |  0.00
Neigh   | 0          | 0          | 0          |   0.0 |  0.00
Comm    | 0          | 0          | 0          |   0.0 |  0.00
Output  | 0          | 0          | 0          |   0.0 |  0.00
Modify  | 0          | 0          | 0          |   0.0 |  0.00
Other   |            | 1.86e-06   |            |       |100.00

Nlocal:            915 ave         915 max         915 min
Histogram: 1 0 0 0 0 0 0 0 0 0
Nghost:           2312 ave        2312 max        2312 min
Histogram: 1 0 0 0 0 0 0 0 0 0
Neighs:          57936 ave       57936 max       57936 min
Histogram: 1 0 0 0 0 0 0 0 0 0

Total # of neighbors = 57936
Ave neighs/atom = 63.318033
Ave special neighs/atom = 0
Neighbor list builds = 0
Dangerous builds not checked
write_data      after_system.data nocoeff
System init for write_data ...
PPPM/electrode initialization ...
  using 12-bit tables for long-range coulomb (src/kspace.cpp:342)
  G vector (1/distance) = 0.5
  grid = 36 32 160
  stencil order = 5
  estimated absolute RMS force accuracy = 0.0018194603
  estimated relative force accuracy = 0.00012635452
  using double precision KISS FFT
  3d grid and FFT values/proc = 300735 184320
Generated 0 of 3 mixed pair_coeff terms from geometric mixing rule
Total wall time: 0:00:00
