   2   2   0   0
  0.2044455E+02  0.3867000E-09  0.3867000E-09  0.3867000E-09  0.5000000E-15
   1.0000000000000000E-004
  CAR 
 unknown system                          
     19.90460476   -137.84885605  301      3.20903016      1.00000000
   -137.849  0.0000E+00  0.0000E+00
   -137.323  0.0000E+00  0.0000E+00
   -136.797  0.0000E+00  0.0000E+00
   -136.271  0.0000E+00  0.0000E+00
   -135.745  0.0000E+00  0.0000E+00
   -135.220  0.0000E+00  0.0000E+00
   -134.694  0.0000E+00  0.0000E+00
   -134.168  0.0000E+00  0.0000E+00
   -133.642  0.0000E+00  0.0000E+00
   -133.116  0.0000E+00  0.0000E+00
   -132.590  0.0000E+00  0.0000E+00
   -132.065  0.0000E+00  0.0000E+00
   -131.539  0.0000E+00  0.0000E+00
   -131.013  0.0000E+00  0.0000E+00
   -130.487  0.7607E+01  0.4000E+01
   -129.961  0.0000E+00  0.4000E+01
   -129.435  0.0000E+00  0.4000E+01
   -128.909  0.0000E+00  0.4000E+01
   -128.384  0.0000E+00  0.4000E+01
   -127.858  0.0000E+00  0.4000E+01
   -127.332  0.0000E+00  0.4000E+01
   -126.806  0.0000E+00  0.4000E+01
   -126.280  0.0000E+00  0.4000E+01
   -125.754  0.0000E+00  0.4000E+01
   -125.229  0.0000E+00  0.4000E+01
   -124.703  0.0000E+00  0.4000E+01
   -124.177  0.0000E+00  0.4000E+01
   -123.651  0.0000E+00  0.4000E+01
   -123.125  0.0000E+00  0.4000E+01
   -122.599  0.0000E+00  0.4000E+01
   -122.074  0.0000E+00  0.4000E+01
   -121.548  0.0000E+00  0.4000E+01
   -121.022  0.0000E+00  0.4000E+01
   -120.496  0.0000E+00  0.4000E+01
   -119.970  0.0000E+00  0.4000E+01
   -119.444  0.0000E+00  0.4000E+01
   -118.918  0.0000E+00  0.4000E+01
   -118.393  0.0000E+00  0.4000E+01
   -117.867  0.0000E+00  0.4000E+01
   -117.341  0.0000E+00  0.4000E+01
   -116.815  0.0000E+00  0.4000E+01
   -116.289  0.0000E+00  0.4000E+01
   -115.763  0.0000E+00  0.4000E+01
   -115.238  0.0000E+00  0.4000E+01
   -114.712  0.0000E+00  0.4000E+01
   -114.186  0.0000E+00  0.4000E+01
   -113.660  0.0000E+00  0.4000E+01
   -113.134  0.0000E+00  0.4000E+01
   -112.608  0.0000E+00  0.4000E+01
   -112.082  0.0000E+00  0.4000E+01
   -111.557  0.0000E+00  0.4000E+01
   -111.031  0.0000E+00  0.4000E+01
   -110.505  0.0000E+00  0.4000E+01
   -109.979  0.0000E+00  0.4000E+01
   -109.453  0.0000E+00  0.4000E+01
   -108.927  0.0000E+00  0.4000E+01
   -108.402  0.0000E+00  0.4000E+01
   -107.876  0.0000E+00  0.4000E+01
   -107.350  0.0000E+00  0.4000E+01
   -106.824  0.0000E+00  0.4000E+01
   -106.298  0.0000E+00  0.4000E+01
   -105.772  0.0000E+00  0.4000E+01
   -105.246  0.0000E+00  0.4000E+01
   -104.721  0.0000E+00  0.4000E+01
   -104.195  0.0000E+00  0.4000E+01
   -103.669  0.0000E+00  0.4000E+01
   -103.143  0.0000E+00  0.4000E+01
   -102.617  0.0000E+00  0.4000E+01
   -102.091  0.0000E+00  0.4000E+01
   -101.566  0.0000E+00  0.4000E+01
   -101.040  0.0000E+00  0.4000E+01
   -100.514  0.0000E+00  0.4000E+01
    -99.988  0.0000E+00  0.4000E+01
    -99.462  0.0000E+00  0.4000E+01
    -98.936  0.0000E+00  0.4000E+01
    -98.410  0.0000E+00  0.4000E+01
    -97.885  0.0000E+00  0.4000E+01
    -97.359  0.0000E+00  0.4000E+01
    -96.833  0.0000E+00  0.4000E+01
    -96.307  0.0000E+00  0.4000E+01
    -95.781  0.0000E+00  0.4000E+01
    -95.255  0.0000E+00  0.4000E+01
    -94.730  0.0000E+00  0.4000E+01
    -94.204  0.0000E+00  0.4000E+01
    -93.678  0.0000E+00  0.4000E+01
    -93.152  0.0000E+00  0.4000E+01
    -92.626  0.0000E+00  0.4000E+01
    -92.100  0.0000E+00  0.4000E+01
    -91.575  0.0000E+00  0.4000E+01
    -91.049  0.0000E+00  0.4000E+01
    -90.523  0.0000E+00  0.4000E+01
    -89.997  0.0000E+00  0.4000E+01
    -89.471  0.0000E+00  0.4000E+01
    -88.945  0.0000E+00  0.4000E+01
    -88.419  0.0000E+00  0.4000E+01
    -87.894  0.0000E+00  0.4000E+01
    -87.368  0.0000E+00  0.4000E+01
    -86.842  0.5400E-01  0.4028E+01
    -86.316  0.0000E+00  0.1600E+02
    -85.790  0.0000E+00  0.1600E+02
    -85.264  0.0000E+00  0.1600E+02
    -84.739  0.0000E+00  0.1600E+02
    -84.213  0.0000E+00  0.1600E+02
    -83.687  0.0000E+00  0.1600E+02
    -83.161  0.0000E+00  0.1600E+02
    -82.635  0.0000E+00  0.1600E+02
    -82.109  0.0000E+00  0.1600E+02
    -81.583  0.0000E+00  0.1600E+02
    -81.058  0.0000E+00  0.1600E+02
    -80.532  0.0000E+00  0.1600E+02
    -80.006  0.0000E+00  0.1600E+02
    -79.480  0.0000E+00  0.1600E+02
    -78.954  0.0000E+00  0.1600E+02
    -78.428  0.0000E+00  0.1600E+02
    -77.903  0.0000E+00  0.1600E+02
    -77.377  0.0000E+00  0.1600E+02
    -76.851  0.0000E+00  0.1600E+02
    -76.325  0.0000E+00  0.1600E+02
    -75.799  0.0000E+00  0.1600E+02
    -75.273  0.0000E+00  0.1600E+02
    -74.747  0.0000E+00  0.1600E+02
    -74.222  0.0000E+00  0.1600E+02
    -73.696  0.0000E+00  0.1600E+02
    -73.170  0.0000E+00  0.1600E+02
    -72.644  0.0000E+00  0.1600E+02
    -72.118  0.0000E+00  0.1600E+02
    -71.592  0.0000E+00  0.1600E+02
    -71.067  0.0000E+00  0.1600E+02
    -70.541  0.0000E+00  0.1600E+02
    -70.015  0.0000E+00  0.1600E+02
    -69.489  0.0000E+00  0.1600E+02
    -68.963  0.0000E+00  0.1600E+02
    -68.437  0.0000E+00  0.1600E+02
    -67.911  0.0000E+00  0.1600E+02
    -67.386  0.0000E+00  0.1600E+02
    -66.860  0.0000E+00  0.1600E+02
    -66.334  0.0000E+00  0.1600E+02
    -65.808  0.0000E+00  0.1600E+02
    -65.282  0.0000E+00  0.1600E+02
    -64.756  0.0000E+00  0.1600E+02
    -64.231  0.0000E+00  0.1600E+02
    -63.705  0.0000E+00  0.1600E+02
    -63.179  0.0000E+00  0.1600E+02
    -62.653  0.0000E+00  0.1600E+02
    -62.127  0.0000E+00  0.1600E+02
    -61.601  0.0000E+00  0.1600E+02
    -61.076  0.0000E+00  0.1600E+02
    -60.550  0.0000E+00  0.1600E+02
    -60.024  0.0000E+00  0.1600E+02
    -59.498  0.0000E+00  0.1600E+02
    -58.972  0.0000E+00  0.1600E+02
    -58.446  0.0000E+00  0.1600E+02
    -57.920  0.0000E+00  0.1600E+02
    -57.395  0.0000E+00  0.1600E+02
    -56.869  0.0000E+00  0.1600E+02
    -56.343  0.0000E+00  0.1600E+02
    -55.817  0.0000E+00  0.1600E+02
    -55.291  0.0000E+00  0.1600E+02
    -54.765  0.0000E+00  0.1600E+02
    -54.240  0.0000E+00  0.1600E+02
    -53.714  0.0000E+00  0.1600E+02
    -53.188  0.0000E+00  0.1600E+02
    -52.662  0.0000E+00  0.1600E+02
    -52.136  0.0000E+00  0.1600E+02
    -51.610  0.0000E+00  0.1600E+02
    -51.084  0.0000E+00  0.1600E+02
    -50.559  0.0000E+00  0.1600E+02
    -50.033  0.0000E+00  0.1600E+02
    -49.507  0.0000E+00  0.1600E+02
    -48.981  0.0000E+00  0.1600E+02
    -48.455  0.0000E+00  0.1600E+02
    -47.929  0.0000E+00  0.1600E+02
    -47.404  0.0000E+00  0.1600E+02
    -46.878  0.0000E+00  0.1600E+02
    -46.352  0.0000E+00  0.1600E+02
    -45.826  0.0000E+00  0.1600E+02
    -45.300  0.0000E+00  0.1600E+02
    -44.774  0.0000E+00  0.1600E+02
    -44.248  0.0000E+00  0.1600E+02
    -43.723  0.0000E+00  0.1600E+02
    -43.197  0.0000E+00  0.1600E+02
    -42.671  0.0000E+00  0.1600E+02
    -42.145  0.0000E+00  0.1600E+02
    -41.619  0.0000E+00  0.1600E+02
    -41.093  0.0000E+00  0.1600E+02
    -40.568  0.0000E+00  0.1600E+02
    -40.042  0.0000E+00  0.1600E+02
    -39.516  0.0000E+00  0.1600E+02
    -38.990  0.0000E+00  0.1600E+02
    -38.464  0.0000E+00  0.1600E+02
    -37.938  0.0000E+00  0.1600E+02
    -37.412  0.0000E+00  0.1600E+02
    -36.887  0.0000E+00  0.1600E+02
    -36.361  0.0000E+00  0.1600E+02
    -35.835  0.0000E+00  0.1600E+02
    -35.309  0.0000E+00  0.1600E+02
    -34.783  0.0000E+00  0.1600E+02
    -34.257  0.0000E+00  0.1600E+02
    -33.732  0.0000E+00  0.1600E+02
    -33.206  0.0000E+00  0.1600E+02
    -32.680  0.0000E+00  0.1600E+02
    -32.154  0.0000E+00  0.1600E+02
    -31.628  0.0000E+00  0.1600E+02
    -31.102  0.0000E+00  0.1600E+02
    -30.577  0.0000E+00  0.1600E+02
    -30.051  0.0000E+00  0.1600E+02
    -29.525  0.0000E+00  0.1600E+02
    -28.999  0.0000E+00  0.1600E+02
    -28.473  0.0000E+00  0.1600E+02
    -27.947  0.0000E+00  0.1600E+02
    -27.421  0.0000E+00  0.1600E+02
    -26.896  0.0000E+00  0.1600E+02
    -26.370  0.0000E+00  0.1600E+02
    -25.844  0.0000E+00  0.1600E+02
    -25.318  0.0000E+00  0.1600E+02
    -24.792  0.0000E+00  0.1600E+02
    -24.266  0.0000E+00  0.1600E+02
    -23.741  0.0000E+00  0.1600E+02
    -23.215  0.0000E+00  0.1600E+02
    -22.689  0.0000E+00  0.1600E+02
    -22.163  0.0000E+00  0.1600E+02
    -21.637  0.0000E+00  0.1600E+02
    -21.111  0.0000E+00  0.1600E+02
    -20.585  0.0000E+00  0.1600E+02
    -20.060  0.0000E+00  0.1600E+02
    -19.534  0.0000E+00  0.1600E+02
    -19.008  0.0000E+00  0.1600E+02
    -18.482  0.0000E+00  0.1600E+02
    -17.956  0.0000E+00  0.1600E+02
    -17.430  0.0000E+00  0.1600E+02
    -16.905  0.0000E+00  0.1600E+02
    -16.379  0.0000E+00  0.1600E+02
    -15.853  0.0000E+00  0.1600E+02
    -15.327  0.0000E+00  0.1600E+02
    -14.801  0.0000E+00  0.1600E+02
    -14.275  0.0000E+00  0.1600E+02
    -13.749  0.0000E+00  0.1600E+02
    -13.224  0.0000E+00  0.1600E+02
    -12.698  0.0000E+00  0.1600E+02
    -12.172  0.0000E+00  0.1600E+02
    -11.646  0.0000E+00  0.1600E+02
    -11.120  0.0000E+00  0.1600E+02
    -10.594  0.0000E+00  0.1600E+02
    -10.069  0.0000E+00  0.1600E+02
     -9.543  0.0000E+00  0.1600E+02
     -9.017  0.1630E+00  0.1609E+02
     -8.491  0.0000E+00  0.1625E+02
     -7.965  0.0000E+00  0.1625E+02
     -7.439  0.0000E+00  0.1625E+02
     -6.913  0.4047E-08  0.1625E+02
     -6.388  0.1902E+01  0.1725E+02
     -5.862  0.0000E+00  0.1725E+02
     -5.336  0.0000E+00  0.1725E+02
     -4.810  0.2848E+01  0.1875E+02
     -4.284  0.7098E-09  0.1875E+02
     -3.758  0.1902E+01  0.1975E+02
     -3.233  0.0000E+00  0.1975E+02
     -2.707  0.0000E+00  0.1975E+02
     -2.181  0.0000E+00  0.1975E+02
     -1.655  0.0000E+00  0.1975E+02
     -1.129  0.0000E+00  0.1975E+02
     -0.603  0.0000E+00  0.1975E+02
     -0.078  0.1743E-01  0.1976E+02
      0.448  0.0000E+00  0.2125E+02
      0.974  0.0000E+00  0.2125E+02
      1.500  0.7327E-05  0.2125E+02
      2.026  0.3803E+01  0.2325E+02
      2.552  0.0000E+00  0.2325E+02
      3.078  0.1426E+01  0.2400E+02
      3.603  0.2838E+01  0.2549E+02
      4.129  0.8291E-05  0.2550E+02
      4.655  0.1902E+01  0.2650E+02
      5.181  0.5924E-03  0.2650E+02
      5.707  0.0000E+00  0.2725E+02
      6.233  0.4279E+01  0.2950E+02
      6.758  0.0000E+00  0.2950E+02
      7.284  0.0000E+00  0.2950E+02
      7.810  0.0000E+00  0.2950E+02
      8.336  0.0000E+00  0.2950E+02
      8.862  0.0000E+00  0.2950E+02
      9.388  0.0000E+00  0.2950E+02
      9.914  0.0000E+00  0.2950E+02
     10.439  0.1507E+00  0.2958E+02
     10.965  0.0000E+00  0.3050E+02
     11.491  0.0000E+00  0.3050E+02
     12.017  0.0000E+00  0.3050E+02
     12.543  0.9169E-07  0.3050E+02
     13.069  0.2853E+01  0.3200E+02
     13.594  0.0000E+00  0.3200E+02
     14.120  0.0000E+00  0.3200E+02
     14.646  0.0000E+00  0.3200E+02
     15.172  0.0000E+00  0.3200E+02
     15.698  0.0000E+00  0.3200E+02
     16.224  0.0000E+00  0.3200E+02
     16.750  0.0000E+00  0.3200E+02
     17.275  0.0000E+00  0.3200E+02
     17.801  0.0000E+00  0.3200E+02
     18.327  0.0000E+00  0.3200E+02
     18.853  0.0000E+00  0.3200E+02
     19.379  0.0000E+00  0.3200E+02
     19.905  0.0000E+00  0.3200E+02
