    2    2    1    1
  0.2044455E+02  0.3867000E-09  0.3867000E-09  0.3867000E-09  0.5000000E-15
   1.0000000000000000E-004
  CAR 
 unknown system                          
     24      3     16

  0.1262379E-14  0.1262379E-14  0.1262379E-14  0.1250000E+00
    1     -130.678244
    2     -130.648076
    3      -86.750586
    4      -86.750585
    5      -86.750580
    6      -86.737860
    7      -86.737859
    8      -86.737851
    9       -9.002556
   10        2.875088
   11        2.875089
   12        2.875186
   13        5.299092
   14        5.299093
   15        5.299169
   16        6.005367

  0.5000000E+00  0.1241812E-14  0.1262379E-14  0.5000000E+00
    1     -130.650570
    2     -130.630072
    3      -86.747836
    4      -86.747834
    5      -86.746766
    6      -86.734962
    7      -86.733623
    8      -86.733617
    9       -6.705810
   10       -4.066615
   11        1.663286
   12        1.663407
   13        4.286473
   14        6.083112
   15        6.083177
   16       10.489254

  0.5000000E+00  0.5000000E+00  0.1262379E-14  0.3750000E+00
    1     -130.622054
    2     -130.622054
    3      -86.747067
    4      -86.747063
    5      -86.737160
    6      -86.737160
    7      -86.727765
    8      -86.727762
    9       -4.913566
   10       -4.913516
   11        0.011066
   12        0.011120
   13        3.512376
   14        3.512442
   15       12.733855
   16       12.733993
