 running on    1 total cores
 distrk:  each k-point on    1 cores,    1 groups
 distr:  one band on    1 cores,    1 groups
 using from now: INCAR     
 vasp.5.3.5 31Mar14 (build Sep 28 2016 15:36:23) complex                         
 POSCAR found type information on POSCAR  Si
 POSCAR found :  1 types and       2 ions
 scaLAPACK will be used
 LDA part: xc-table for Pade appr. of Perdew
 POSCAR, INCAR and KPOINTS ok, starting setup
 WARNING: small aliasing (wrap around) errors must be expected
 FFT: planning ...
 WAVECAR not read
 WARNING: random wavefunctions but no delay for mixing, default for NELMDL
 entering main loop
       N       E                     dE             d eps       ncg     rms          rms(c)
DAV:   1     0.429352951978E+03    0.42935E+03   -0.20628E+04   120   0.508E+03
DAV:   2     0.941803298297E+02   -0.33517E+03   -0.33388E+03   104   0.123E+03
DAV:   3     0.582526472059E+01   -0.88355E+02   -0.88282E+02   120   0.390E+02
DAV:   4    -0.670109590030E+01   -0.12526E+02   -0.12525E+02   112   0.178E+02
DAV:   5    -0.850255472535E+01   -0.18015E+01   -0.18015E+01   136   0.794E+01    0.395E+00
DAV:   6    -0.830806900598E+01    0.19449E+00   -0.46619E-01   144   0.102E+01    0.237E+00
DAV:   7    -0.820154916611E+01    0.10652E+00   -0.28222E-01   144   0.624E+00    0.235E-01
DAV:   8    -0.820775680726E+01   -0.62076E-02   -0.11124E-02   104   0.372E+00    0.591E-02
DAV:   9    -0.820820793508E+01   -0.45113E-03   -0.64206E-04    96   0.636E-01    0.283E-02
DAV:  10    -0.820830744738E+01   -0.99512E-04   -0.15079E-04    88   0.459E-01
   1 F= -.82083074E+01 E0= -.82083074E+01  d E =-.217165E-17
