<?xml version="1.0" encoding="ISO-8859-1"?>
<modeling>
 <generator>
  <i name="program" type="string">vasp </i>
  <i name="version" type="string">5.3.5  </i>
  <i name="subversion" type="string">31Mar14 (build Sep 28 2016 15:36:23) complex                          parallel </i>
  <i name="platform" type="string">EXABYTE </i>
  <i name="date" type="string">2017 08 21 </i>
  <i name="time" type="string">03:15:46 </i>
 </generator>
 <incar>
  <i type="string" name="PREC">normal</i>
  <i type="int" name="ISMEAR">     0</i>
  <i name="SIGMA">      0.05000000</i>
  <i type="logical" name="LWAVE"> F  </i>
  <i type="logical" name="LCHARG"> F  </i>
 </incar>
 <kpoints>
  <generation param="Gamma">
   <v type="int" name="divisions">       2        2        2 </v>
   <v name="usershift">      0.00000000       0.00000000       0.00000000 </v>
   <v name="genvec1">      0.50000000      -0.00000000       0.00000000 </v>
   <v name="genvec2">      0.00000000       0.50000000       0.00000000 </v>
   <v name="genvec3">      0.00000000       0.00000000       0.50000000 </v>
   <v name="shift">      0.00000000       0.00000000       0.00000000 </v>
  </generation>
  <varray name="kpointlist" >
   <v>       0.00000000       0.00000000       0.00000000 </v>
   <v>       0.50000000       0.00000000       0.00000000 </v>
   <v>       0.50000000       0.50000000       0.00000000 </v>
  </varray>
  <varray name="weights" >
   <v>       0.12500000 </v>
   <v>       0.50000000 </v>
   <v>       0.37500000 </v>
  </varray>
 </kpoints>
 <parameters>
  <separator name="general" >
   <i type="string" name="SYSTEM">unknown system</i>
   <i type="logical" name="LCOMPAT"> F  </i>
  </separator>
  <separator name="electronic" >
   <i type="string" name="PREC">normal</i>
   <i name="ENMAX">    547.57800000</i>
   <i name="ENAUG">   1153.82700000</i>
   <i name="EDIFF">      0.00010000</i>
   <i type="int" name="IALGO">    38</i>
   <i type="int" name="IWAVPR">    10</i>
   <i type="int" name="NBANDS">    16</i>
   <i name="NELECT">     24.00000000</i>
   <i type="int" name="TURBO">     0</i>
   <i type="int" name="IRESTART">     0</i>
   <i type="int" name="NREBOOT">     0</i>
   <i type="int" name="NMIN">     0</i>
   <i name="EREF">      0.00000000</i>
   <separator name="electronic smearing" >
    <i type="int" name="ISMEAR">     0</i>
    <i name="SIGMA">      0.05000000</i>
    <i name="KSPACING">      0.50000000</i>
    <i type="logical" name="KGAMMA"> T  </i>
   </separator>
   <separator name="electronic projectors" >
    <i type="logical" name="LREAL"> F  </i>
    <v name="ROPT">      0.00000000</v>
    <i type="int" name="LMAXPAW">  -100</i>
    <i type="int" name="LMAXMIX">     2</i>
    <i type="logical" name="NLSPLINE"> F  </i>
   </separator>
   <separator name="electronic startup" >
    <i type="int" name="ISTART">     0</i>
    <i type="int" name="ICHARG">     2</i>
    <i type="int" name="INIWAV">     1</i>
   </separator>
   <separator name="electronic spin" >
    <i type="int" name="ISPIN">     1</i>
    <i type="logical" name="LNONCOLLINEAR"> F  </i>
    <v name="MAGMOM">      1.00000000      1.00000000</v>
    <i name="NUPDOWN">     -1.00000000</i>
    <i type="logical" name="LSORBIT"> F  </i>
    <v name="SAXIS">      0.00000000      0.00000000      1.00000000</v>
    <i type="logical" name="LSPIRAL"> F  </i>
    <v name="QSPIRAL">      0.00000000      0.00000000      0.00000000</v>
    <i type="logical" name="LZEROZ"> F  </i>
   </separator>
   <separator name="electronic exchange-correlation" >
    <i type="logical" name="LASPH"> F  </i>
    <i type="logical" name="LMETAGGA"> F  </i>
   </separator>
   <separator name="electronic convergence" >
    <i type="int" name="NELM">    60</i>
    <i type="int" name="NELMDL">     0</i>
    <i type="int" name="NELMIN">     2</i>
    <i name="ENINI">    547.57800000</i>
    <separator name="electronic convergence detail" >
     <i type="logical" name="LDIAG"> T  </i>
     <i type="logical" name="LSUBROT"> F  </i>
     <i name="WEIMIN">      0.00000000</i>
     <i name="EBREAK">      0.00000156</i>
     <i name="DEPER">      0.30000000</i>
     <i type="int" name="NRMM">     4</i>
     <i name="TIME">      0.40000000</i>
    </separator>
   </separator>
   <separator name="electronic mixer" >
    <i name="AMIX">      0.40000000</i>
    <i name="BMIX">      1.00000000</i>
    <i name="AMIN">      0.10000000</i>
    <i name="AMIX_MAG">      1.60000000</i>
    <i name="BMIX_MAG">      1.00000000</i>
    <separator name="electronic mixer details" >
     <i type="int" name="IMIX">     4</i>
     <i type="int" name="MAXMIX">   -45</i>
     <i name="WC">    100.00000000</i>
     <i type="int" name="INIMIX">     1</i>
     <i type="int" name="MIXPRE">     1</i>
     <i type="int" name="MREMOVE">     5</i>
    </separator>
   </separator>
   <separator name="electronic dipolcorrection" >
    <i type="logical" name="LDIPOL"> F  </i>
    <i type="logical" name="LMONO"> F  </i>
    <i type="int" name="IDIPOL">     0</i>
    <i name="EPSILON">      1.00000000</i>
    <v name="DIPOL">   -100.00000000   -100.00000000   -100.00000000</v>
    <i name="EFIELD">      0.00000000</i>
   </separator>
  </separator>
  <separator name="grids" >
   <i type="int" name="NGX">    24</i>
   <i type="int" name="NGY">    24</i>
   <i type="int" name="NGZ">    24</i>
   <i type="int" name="NGXF">    48</i>
   <i type="int" name="NGYF">    48</i>
   <i type="int" name="NGZF">    48</i>
   <i type="logical" name="ADDGRID"> F  </i>
  </separator>
  <separator name="ionic" >
   <i type="int" name="NSW">     0</i>
   <i type="int" name="IBRION">    -1</i>
   <i type="int" name="ISIF">     2</i>
   <i name="PSTRESS">      0.00000000</i>
   <i name="EDIFFG">      0.00100000</i>
   <i type="int" name="NFREE">     0</i>
   <i name="POTIM">      0.50000000</i>
   <i name="SMASS">     -3.00000000</i>
   <i name="SCALEE">      1.00000000</i>
  </separator>
  <separator name="ionic md" >
   <i name="TEBEG">      0.00010000</i>
   <i name="TEEND">      0.00010000</i>
   <i type="int" name="NBLOCK">     1</i>
   <i type="int" name="KBLOCK">     1</i>
   <i type="int" name="NPACO">   256</i>
   <i name="APACO">     16.00000000</i>
  </separator>
  <separator name="symmetry" >
   <i type="int" name="ISYM">     2</i>
   <i name="SYMPREC">      0.00001000</i>
  </separator>
  <separator name="dos" >
   <i type="logical" name="LORBIT"> F  </i>
   <v name="RWIGS">     -1.00000000</v>
   <i type="int" name="NEDOS">   301</i>
   <i name="EMIN">     10.00000000</i>
   <i name="EMAX">    -10.00000000</i>
   <i name="EFERMI">      0.00000000</i>
  </separator>
  <separator name="writing" >
   <i type="int" name="NWRITE">     2</i>
   <i type="logical" name="LWAVE"> F  </i>
   <i type="logical" name="LCHARG"> F  </i>
   <i type="logical" name="LPARD"> F  </i>
   <i type="logical" name="LVTOT"> F  </i>
   <i type="logical" name="LVHAR"> F  </i>
   <i type="logical" name="LELF"> F  </i>
   <i type="logical" name="LOPTICS"> F  </i>
   <v name="STM">      0.00000000      0.00000000      0.00000000      0.00000000      0.00000000      0.00000000      0.00000000</v>
  </separator>
  <separator name="performance" >
   <i type="int" name="NPAR">     1</i>
   <i type="int" name="NSIM">     4</i>
   <i type="int" name="NBLK">    -1</i>
   <i type="logical" name="LPLANE"> T  </i>
   <i type="logical" name="LSCALAPACK"> T  </i>
   <i type="logical" name="LSCAAWARE"> F  </i>
   <i type="logical" name="LSCALU"> F  </i>
   <i type="logical" name="LASYNC"> F  </i>
   <i type="logical" name="LORBITALREAL"> F  </i>
  </separator>
  <separator name="miscellaneous" >
   <i type="int" name="IDIOT">     3</i>
   <i type="logical" name="LMUSIC"> F  </i>
   <v name="POMASS">     28.08500000</v>
   <v name="DARWINR">      0.00000000</v>
   <v name="DARWINV">      1.00000000</v>
   <i type="logical" name="LCORR"> T  </i>
  </separator>
  <i type="logical" name="GGA_COMPAT"> T  </i>
  <i type="logical" name="LBERRY"> F  </i>
  <i type="int" name="ICORELEVEL">     0</i>
  <i type="logical" name="LDAU"> F  </i>
  <i type="int" name="I_CONSTRAINED_M">     0</i>
  <separator name="electronic exchange-correlation" >
   <i type="string" name="GGA">--</i>
   <i type="int" name="VOSKOWN">     0</i>
   <i type="logical" name="LHFCALC"> F  </i>
   <i type="string" name="PRECFOCK"></i>
   <i type="logical" name="LSYMGRAD"> F  </i>
   <i type="logical" name="LHFONE"> F  </i>
   <i type="logical" name="LRHFCALC"> F  </i>
   <i type="logical" name="LTHOMAS"> F  </i>
   <i type="logical" name="LMODELHF"> F  </i>
   <i name="ENCUT4O">     -1.00000000</i>
   <i type="int" name="EXXOEP">     0</i>
   <i type="int" name="FOURORBIT">     0</i>
   <i name="AEXX">      0.00000000</i>
   <i name="HFALPHA">      0.00000000</i>
   <i name="MCALPHA">      0.00000000</i>
   <i name="ALDAX">      1.00000000</i>
   <i name="AGGAX">      1.00000000</i>
   <i name="ALDAC">      1.00000000</i>
   <i name="AGGAC">      1.00000000</i>
   <i type="int" name="NKREDX">     1</i>
   <i type="int" name="NKREDY">     1</i>
   <i type="int" name="NKREDZ">     1</i>
   <i type="logical" name="SHIFTRED"> F  </i>
   <i type="logical" name="ODDONLY"> F  </i>
   <i type="logical" name="EVENONLY"> F  </i>
   <i type="int" name="LMAXFOCK">     0</i>
   <i type="int" name="NMAXFOCKAE">     0</i>
   <i type="logical" name="LFOCKAEDFT"> F  </i>
   <i name="HFSCREEN">      0.00000000</i>
   <i name="HFSCREENC">      0.00000000</i>
   <i type="int" name="NBANDSGWLOW">     0</i>
  </separator>
  <separator name="vdW DFT" >
   <i type="logical" name="LUSE_VDW"> F  </i>
   <i name="Zab_VDW">     -0.84910000</i>
   <i name="PARAM1">      0.12340000</i>
   <i name="PARAM2">      1.00000000</i>
   <i name="PARAM3">      0.00000000</i>
  </separator>
  <separator name="model GW" >
   <i type="int" name="MODEL_GW">     0</i>
   <i name="MODEL_EPS0">     12.26672712</i>
   <i name="MODEL_ALPHA">      1.00000000</i>
  </separator>
  <separator name="linear response parameters" >
   <i type="logical" name="LEPSILON"> F  </i>
   <i type="logical" name="LRPA"> F  </i>
   <i type="logical" name="LNABLA"> F  </i>
   <i type="logical" name="LVEL"> F  </i>
   <i type="int" name="KINTER">     0</i>
   <i name="CSHIFT">      0.10000000</i>
   <i name="OMEGAMAX">     -1.00000000</i>
   <i name="DEG_THRESHOLD">      0.00200000</i>
  </separator>
  <separator name="orbital magnetization" >
   <i type="logical" name="NUCIND"> F  </i>
   <v name="MAGPOS">      0.00000000      0.00000000      0.00000000</v>
   <i type="logical" name="LNICSALL"> T  </i>
   <i type="logical" name="ORBITALMAG"> F  </i>
   <i type="logical" name="LMAGBLOCH"> F  </i>
   <i type="logical" name="LCHIMAG"> F  </i>
   <i type="logical" name="LGAUGE"> T  </i>
   <i type="int" name="MAGATOM">     0</i>
   <v name="MAGDIPOL">      0.00000000      0.00000000      0.00000000</v>
   <v name="AVECCONST">      0.00000000      0.00000000      0.00000000</v>
  </separator>
  <separator name="response functions" >
   <i type="logical" name="LADDER"> F  </i>
   <i type="logical" name="LFXC"> F  </i>
   <i type="logical" name="LHARTREE"> T  </i>
   <i type="int" name="IBSE">     0</i>
   <i type="logical" name="LTCTE"> F  </i>
   <i type="logical" name="LTETE"> F  </i>
   <i type="logical" name="LTRIPLET"> F  </i>
   <i type="logical" name="LFXCEPS"> F  </i>
   <i type="logical" name="LFXHEG"> F  </i>
   <i type="logical" name="L2ORDER"> F  </i>
   <i type="logical" name="LUSEW"> F  </i>
   <i name="ENCUTGW">     -2.00000000</i>
   <i name="ENCUTGWSOFT">     -2.00000000</i>
   <i name="ENCUTLF">     -1.00000000</i>
   <i type="int" name="LMAXMP2">    -1</i>
   <i name="SCISSOR">      0.00000000</i>
   <i type="int" name="NOMEGA">     0</i>
   <i type="int" name="NOMEGAR">     0</i>
   <i type="int" name="NBANDSGW">    -1</i>
   <i type="int" name="NBANDSO">    -1</i>
   <i type="int" name="NBANDSV">    -1</i>
   <i type="int" name="NELM">     1</i>
   <i type="int" name="DIM">     3</i>
   <i type="int" name="ANTIRES">     0</i>
   <i name="OMEGAMAX">    -30.00000000</i>
   <i name="OMEGAMIN">    -30.00000000</i>
   <i name="OMEGATL">   -200.00000000</i>
   <i type="int" name="OMEGAGRID">     0</i>
   <i name="CSHIFT">     -0.10000000</i>
   <i type="logical" name="SELFENERGY"> F  </i>
   <i type="logical" name="LSPECTRAL"> F  </i>
   <i type="logical" name="ODDONLYGW"> F  </i>
   <i type="logical" name="EVENONLYGW"> F  </i>
   <i type="int" name="NKREDLFX">     1</i>
   <i type="int" name="NKREDLFY">     1</i>
   <i type="int" name="NKREDLFZ">     1</i>
   <i type="int" name="MAXMEM">  1800</i>
   <i type="int" name="TELESCOPE">     0</i>
   <i type="int" name="TAUPAR">     1</i>
  </separator>
  <separator name="External order field" >
   <i name="OFIELD_KAPPA">      0.00000000</i>
   <v name="OFIELD_K">      0.00000000      0.00000000      0.00000000</v>
   <i name="OFIELD_Q6_NEAR">      0.00000000</i>
   <i name="OFIELD_Q6_FAR">      0.00000000</i>
   <i name="OFIELD_A">      0.00000000</i>
  </separator>
 </parameters>
 <atominfo>
  <atoms>       2 </atoms>
  <types>       1 </types>
  <array name="atoms" >
   <dimension dim="1">ion</dimension>
   <field type="string">element</field>
   <field type="int">atomtype</field>
   <set>
    <rc><c>Si</c><c>   1</c></rc>
    <rc><c>Si</c><c>   1</c></rc>
   </set>
  </array>
  <array name="atomtypes" >
   <dimension dim="1">type</dimension>
   <field type="int">atomspertype</field>
   <field type="string">element</field>
   <field>mass</field>
   <field>valence</field>
   <field type="string">pseudopotential</field>
   <set>
    <rc><c>   2</c><c>Si</c><c>     28.08500000</c><c>     12.00000000</c><c>  PAW Si_sv_GW 29Sep2009                </c></rc>
   </set>
  </array>
 </atominfo>
 <structure name="initialpos" >
  <crystal>
   <varray name="basis" >
    <v>       3.34892000       0.00000000       1.93350000 </v>
    <v>       1.11630700       3.15739200       1.93350000 </v>
    <v>       0.00000000       0.00000000       3.86700000 </v>
   </varray>
   <i name="volume">     40.88909039 </i>
   <varray name="rec_basis" >
    <v>       0.29860373      -0.10557239       0.00000000 </v>
    <v>       0.00000000       0.31671709       0.00000000 </v>
    <v>      -0.14930186      -0.10557235       0.25859840 </v>
   </varray>
  </crystal>
  <varray name="positions" >
   <v>       0.00000000       0.00000000       0.00000000 </v>
   <v>       0.25000000       0.25000000       0.25000000 </v>
  </varray>
 </structure>
 <calculation>
  <scstep>
   <time name="dav">    0.17    0.17</time>
   <time name="total">    0.29    0.29</time>
   <energy>
    <i name="alphaZ">    128.35390443 </i>
    <i name="ewald">  -2042.49083880 </i>
    <i name="hartreedc">  -1464.75570583 </i>
    <i name="XCdc">    149.54426362 </i>
    <i name="pawpsdc">   3040.29948599 </i>
    <i name="pawaedc">  -3777.14605707 </i>
    <i name="eentropy">     -0.00000000 </i>
    <i name="bandstr">  -1162.18136712 </i>
    <i name="atom">   5557.72926676 </i>
    <i name="e_fr_energy">    429.35295198 </i>
    <i name="e_wo_entrp">    429.35295198 </i>
    <i name="e_0_energy">    429.35295198 </i>
   </energy>
  </scstep>
  <scstep>
   <time name="dav">    0.16    0.16</time>
   <time name="total">    0.16    0.16</time>
   <energy>
    <i name="e_fr_energy">     94.18032983 </i>
    <i name="e_wo_entrp">     94.18032984 </i>
    <i name="e_0_energy">     94.18032984 </i>
   </energy>
  </scstep>
  <scstep>
   <time name="dav">    0.19    0.19</time>
   <time name="total">    0.19    0.19</time>
   <energy>
    <i name="e_fr_energy">      5.82526472 </i>
    <i name="e_wo_entrp">      5.82526472 </i>
    <i name="e_0_energy">      5.82526472 </i>
   </energy>
  </scstep>
  <scstep>
   <time name="dav">    0.17    0.17</time>
   <time name="total">    0.17    0.17</time>
   <energy>
    <i name="e_fr_energy">     -6.70109590 </i>
    <i name="e_wo_entrp">     -6.70109590 </i>
    <i name="e_0_energy">     -6.70109590 </i>
   </energy>
  </scstep>
  <scstep>
   <time name="dav">    0.21    0.20</time>
   <time name="total">    0.25    0.25</time>
   <energy>
    <i name="e_fr_energy">     -8.50255473 </i>
    <i name="e_wo_entrp">     -8.50255473 </i>
    <i name="e_0_energy">     -8.50255473 </i>
   </energy>
  </scstep>
  <scstep>
   <time name="dav">    0.19    0.19</time>
   <time name="total">    0.34    0.34</time>
   <energy>
    <i name="e_fr_energy">     -8.30806901 </i>
    <i name="e_wo_entrp">     -8.30806901 </i>
    <i name="e_0_energy">     -8.30806901 </i>
   </energy>
  </scstep>
  <scstep>
   <time name="dav">    0.20    0.20</time>
   <time name="total">    0.35    0.34</time>
   <energy>
    <i name="e_fr_energy">     -8.20154917 </i>
    <i name="e_wo_entrp">     -8.20154917 </i>
    <i name="e_0_energy">     -8.20154917 </i>
   </energy>
  </scstep>
  <scstep>
   <time name="dav">    0.16    0.16</time>
   <time name="total">    0.31    0.31</time>
   <energy>
    <i name="e_fr_energy">     -8.20775681 </i>
    <i name="e_wo_entrp">     -8.20775681 </i>
    <i name="e_0_energy">     -8.20775681 </i>
   </energy>
  </scstep>
  <scstep>
   <time name="dav">    0.15    0.15</time>
   <time name="total">    0.28    0.28</time>
   <energy>
    <i name="e_fr_energy">     -8.20820794 </i>
    <i name="e_wo_entrp">     -8.20820794 </i>
    <i name="e_0_energy">     -8.20820794 </i>
   </energy>
  </scstep>
  <scstep>
   <time name="dav">    0.14    0.14</time>
   <time name="total">    0.25    0.25</time>
   <energy>
    <i name="alphaZ">    128.35390443 </i>
    <i name="ewald">  -2042.49083880 </i>
    <i name="hartreedc">  -1483.53939578 </i>
    <i name="XCdc">    150.01804788 </i>
    <i name="pawpsdc">   3174.79183935 </i>
    <i name="pawaedc">  -3914.75317348 </i>
    <i name="eentropy">     -0.00000000 </i>
    <i name="bandstr">  -1578.31795780 </i>
    <i name="atom">   5557.72926676 </i>
    <i name="e_fr_energy">     -8.20830745 </i>
    <i name="e_wo_entrp">     -8.20830745 </i>
    <i name="e_0_energy">     -8.20830745 </i>
   </energy>
  </scstep>
  <structure>
   <crystal>
    <varray name="basis" >
     <v>       3.34892000       0.00000000       1.93350000 </v>
     <v>       1.11630700       3.15739200       1.93350000 </v>
     <v>       0.00000000       0.00000000       3.86700000 </v>
    </varray>
    <i name="volume">     40.88909039 </i>
    <varray name="rec_basis" >
     <v>       0.29860373      -0.10557239       0.00000000 </v>
     <v>       0.00000000       0.31671709       0.00000000 </v>
     <v>      -0.14930186      -0.10557235       0.25859840 </v>
    </varray>
   </crystal>
   <varray name="positions" >
    <v>       0.00000000       0.00000000       0.00000000 </v>
    <v>       0.25000000       0.25000000       0.25000000 </v>
   </varray>
  </structure>
  <varray name="forces" >
   <v>       0.00000000      -0.00000000      -0.00000000 </v>
   <v>      -0.00000000       0.00000000       0.00000000 </v>
  </varray>
  <varray name="stress" >
   <v>     -93.50828664      -0.00000987       0.00000000 </v>
   <v>      -0.00000987     -93.50828335       0.00000000 </v>
   <v>      -0.00000000       0.00000000     -93.50829984 </v>
  </varray>
  <energy>
   <i name="e_fr_energy">     -8.20830745 </i>
   <i name="e_wo_entrp">     -8.20830745 </i>
   <i name="e_0_energy">     -0.00000000 </i>
  </energy>
  <time name="totalsc">    3.04    3.04</time>
  <eigenvalues>
   <array>
    <dimension dim="1">band</dimension>
    <dimension dim="2">kpoint</dimension>
    <dimension dim="3">spin</dimension>
    <field>eigene</field>
    <field>occ</field>
    <set>
     <set comment="spin 1">
      <set comment="kpoint 1">
       <r> -130.6782    1.0000 </r>
       <r> -130.6481    1.0000 </r>
       <r>  -86.7506    1.0000 </r>
       <r>  -86.7506    1.0000 </r>
       <r>  -86.7506    1.0000 </r>
       <r>  -86.7379    1.0000 </r>
       <r>  -86.7379    1.0000 </r>
       <r>  -86.7379    1.0000 </r>
       <r>   -9.0026    1.0000 </r>
       <r>    2.8751    1.0000 </r>
       <r>    2.8751    1.0000 </r>
       <r>    2.8752    1.0000 </r>
       <r>    5.2991    0.0000 </r>
       <r>    5.2991    0.0000 </r>
       <r>    5.2992    0.0000 </r>
       <r>    6.0054    0.0000 </r>
      </set>
      <set comment="kpoint 2">
       <r> -130.6506    1.0000 </r>
       <r> -130.6301    1.0000 </r>
       <r>  -86.7478    1.0000 </r>
       <r>  -86.7478    1.0000 </r>
       <r>  -86.7468    1.0000 </r>
       <r>  -86.7350    1.0000 </r>
       <r>  -86.7336    1.0000 </r>
       <r>  -86.7336    1.0000 </r>
       <r>   -6.7058    1.0000 </r>
       <r>   -4.0666    1.0000 </r>
       <r>    1.6633    1.0000 </r>
       <r>    1.6634    1.0000 </r>
       <r>    4.2865    0.0000 </r>
       <r>    6.0831    0.0000 </r>
       <r>    6.0832    0.0000 </r>
       <r>   10.4893    0.0000 </r>
      </set>
      <set comment="kpoint 3">
       <r> -130.6221    1.0000 </r>
       <r> -130.6221    1.0000 </r>
       <r>  -86.7471    1.0000 </r>
       <r>  -86.7471    1.0000 </r>
       <r>  -86.7372    1.0000 </r>
       <r>  -86.7372    1.0000 </r>
       <r>  -86.7278    1.0000 </r>
       <r>  -86.7278    1.0000 </r>
       <r>   -4.9136    1.0000 </r>
       <r>   -4.9135    1.0000 </r>
       <r>    0.0111    1.0000 </r>
       <r>    0.0111    1.0000 </r>
       <r>    3.5124    0.0000 </r>
       <r>    3.5124    0.0000 </r>
       <r>   12.7339    0.0000 </r>
       <r>   12.7340    0.0000 </r>
      </set>
     </set>
    </set>
   </array>
  </eigenvalues>
  <separator name="orbital magnetization" >
   <v name="MAGDIPOLOUT">      0.00000000      0.00000000      0.00000000</v>
  </separator>
  <dos>
   <i name="efermi">      3.20903016 </i>
   <total>
    <array>
     <dimension dim="1">gridpoints</dimension>
     <dimension dim="2">spin</dimension>
     <field>energy</field>
     <field>total</field>
     <field>integrated</field>
     <set>
      <set comment="spin 1">
       <r>  -137.8489     0.0000     0.0000 </r>
       <r>  -137.3230     0.0000     0.0000 </r>
       <r>  -136.7972     0.0000     0.0000 </r>
       <r>  -136.2713     0.0000     0.0000 </r>
       <r>  -135.7455     0.0000     0.0000 </r>
       <r>  -135.2196     0.0000     0.0000 </r>
       <r>  -134.6938     0.0000     0.0000 </r>
       <r>  -134.1679     0.0000     0.0000 </r>
       <r>  -133.6421     0.0000     0.0000 </r>
       <r>  -133.1163     0.0000     0.0000 </r>
       <r>  -132.5904     0.0000     0.0000 </r>
       <r>  -132.0646     0.0000     0.0000 </r>
       <r>  -131.5387     0.0000     0.0000 </r>
       <r>  -131.0129     0.0000     0.0000 </r>
       <r>  -130.4870     7.6066     3.9999 </r>
       <r>  -129.9612     0.0000     4.0000 </r>
       <r>  -129.4353     0.0000     4.0000 </r>
       <r>  -128.9095     0.0000     4.0000 </r>
       <r>  -128.3836     0.0000     4.0000 </r>
       <r>  -127.8578     0.0000     4.0000 </r>
       <r>  -127.3320     0.0000     4.0000 </r>
       <r>  -126.8061     0.0000     4.0000 </r>
       <r>  -126.2803     0.0000     4.0000 </r>
       <r>  -125.7544     0.0000     4.0000 </r>
       <r>  -125.2286     0.0000     4.0000 </r>
       <r>  -124.7027     0.0000     4.0000 </r>
       <r>  -124.1769     0.0000     4.0000 </r>
       <r>  -123.6510     0.0000     4.0000 </r>
       <r>  -123.1252     0.0000     4.0000 </r>
       <r>  -122.5994     0.0000     4.0000 </r>
       <r>  -122.0735     0.0000     4.0000 </r>
       <r>  -121.5477     0.0000     4.0000 </r>
       <r>  -121.0218     0.0000     4.0000 </r>
       <r>  -120.4960     0.0000     4.0000 </r>
       <r>  -119.9701     0.0000     4.0000 </r>
       <r>  -119.4443     0.0000     4.0000 </r>
       <r>  -118.9184     0.0000     4.0000 </r>
       <r>  -118.3926     0.0000     4.0000 </r>
       <r>  -117.8668     0.0000     4.0000 </r>
       <r>  -117.3409     0.0000     4.0000 </r>
       <r>  -116.8151     0.0000     4.0000 </r>
       <r>  -116.2892     0.0000     4.0000 </r>
       <r>  -115.7634     0.0000     4.0000 </r>
       <r>  -115.2375     0.0000     4.0000 </r>
       <r>  -114.7117     0.0000     4.0000 </r>
       <r>  -114.1858     0.0000     4.0000 </r>
       <r>  -113.6600     0.0000     4.0000 </r>
       <r>  -113.1341     0.0000     4.0000 </r>
       <r>  -112.6083     0.0000     4.0000 </r>
       <r>  -112.0825     0.0000     4.0000 </r>
       <r>  -111.5566     0.0000     4.0000 </r>
       <r>  -111.0308     0.0000     4.0000 </r>
       <r>  -110.5049     0.0000     4.0000 </r>
       <r>  -109.9791     0.0000     4.0000 </r>
       <r>  -109.4532     0.0000     4.0000 </r>
       <r>  -108.9274     0.0000     4.0000 </r>
       <r>  -108.4015     0.0000     4.0000 </r>
       <r>  -107.8757     0.0000     4.0000 </r>
       <r>  -107.3499     0.0000     4.0000 </r>
       <r>  -106.8240     0.0000     4.0000 </r>
       <r>  -106.2982     0.0000     4.0000 </r>
       <r>  -105.7723     0.0000     4.0000 </r>
       <r>  -105.2465     0.0000     4.0000 </r>
       <r>  -104.7206     0.0000     4.0000 </r>
       <r>  -104.1948     0.0000     4.0000 </r>
       <r>  -103.6689     0.0000     4.0000 </r>
       <r>  -103.1431     0.0000     4.0000 </r>
       <r>  -102.6172     0.0000     4.0000 </r>
       <r>  -102.0914     0.0000     4.0000 </r>
       <r>  -101.5656     0.0000     4.0000 </r>
       <r>  -101.0397     0.0000     4.0000 </r>
       <r>  -100.5139     0.0000     4.0000 </r>
       <r>   -99.9880     0.0000     4.0000 </r>
       <r>   -99.4622     0.0000     4.0000 </r>
       <r>   -98.9363     0.0000     4.0000 </r>
       <r>   -98.4105     0.0000     4.0000 </r>
       <r>   -97.8846     0.0000     4.0000 </r>
       <r>   -97.3588     0.0000     4.0000 </r>
       <r>   -96.8330     0.0000     4.0000 </r>
       <r>   -96.3071     0.0000     4.0000 </r>
       <r>   -95.7813     0.0000     4.0000 </r>
       <r>   -95.2554     0.0000     4.0000 </r>
       <r>   -94.7296     0.0000     4.0000 </r>
       <r>   -94.2037     0.0000     4.0000 </r>
       <r>   -93.6779     0.0000     4.0000 </r>
       <r>   -93.1520     0.0000     4.0000 </r>
       <r>   -92.6262     0.0000     4.0000 </r>
       <r>   -92.1004     0.0000     4.0000 </r>
       <r>   -91.5745     0.0000     4.0000 </r>
       <r>   -91.0487     0.0000     4.0000 </r>
       <r>   -90.5228     0.0000     4.0000 </r>
       <r>   -89.9970     0.0000     4.0000 </r>
       <r>   -89.4711     0.0000     4.0000 </r>
       <r>   -88.9453     0.0000     4.0000 </r>
       <r>   -88.4194     0.0000     4.0000 </r>
       <r>   -87.8936     0.0000     4.0000 </r>
       <r>   -87.3677     0.0000     4.0000 </r>
       <r>   -86.8419     0.0540     4.0284 </r>
       <r>   -86.3161     0.0000    16.0000 </r>
       <r>   -85.7902     0.0000    16.0000 </r>
       <r>   -85.2644     0.0000    16.0000 </r>
       <r>   -84.7385     0.0000    16.0000 </r>
       <r>   -84.2127     0.0000    16.0000 </r>
       <r>   -83.6868     0.0000    16.0000 </r>
       <r>   -83.1610     0.0000    16.0000 </r>
       <r>   -82.6351     0.0000    16.0000 </r>
       <r>   -82.1093     0.0000    16.0000 </r>
       <r>   -81.5835     0.0000    16.0000 </r>
       <r>   -81.0576     0.0000    16.0000 </r>
       <r>   -80.5318     0.0000    16.0000 </r>
       <r>   -80.0059     0.0000    16.0000 </r>
       <r>   -79.4801     0.0000    16.0000 </r>
       <r>   -78.9542     0.0000    16.0000 </r>
       <r>   -78.4284     0.0000    16.0000 </r>
       <r>   -77.9025     0.0000    16.0000 </r>
       <r>   -77.3767     0.0000    16.0000 </r>
       <r>   -76.8509     0.0000    16.0000 </r>
       <r>   -76.3250     0.0000    16.0000 </r>
       <r>   -75.7992     0.0000    16.0000 </r>
       <r>   -75.2733     0.0000    16.0000 </r>
       <r>   -74.7475     0.0000    16.0000 </r>
       <r>   -74.2216     0.0000    16.0000 </r>
       <r>   -73.6958     0.0000    16.0000 </r>
       <r>   -73.1699     0.0000    16.0000 </r>
       <r>   -72.6441     0.0000    16.0000 </r>
       <r>   -72.1182     0.0000    16.0000 </r>
       <r>   -71.5924     0.0000    16.0000 </r>
       <r>   -71.0666     0.0000    16.0000 </r>
       <r>   -70.5407     0.0000    16.0000 </r>
       <r>   -70.0149     0.0000    16.0000 </r>
       <r>   -69.4890     0.0000    16.0000 </r>
       <r>   -68.9632     0.0000    16.0000 </r>
       <r>   -68.4373     0.0000    16.0000 </r>
       <r>   -67.9115     0.0000    16.0000 </r>
       <r>   -67.3856     0.0000    16.0000 </r>
       <r>   -66.8598     0.0000    16.0000 </r>
       <r>   -66.3340     0.0000    16.0000 </r>
       <r>   -65.8081     0.0000    16.0000 </r>
       <r>   -65.2823     0.0000    16.0000 </r>
       <r>   -64.7564     0.0000    16.0000 </r>
       <r>   -64.2306     0.0000    16.0000 </r>
       <r>   -63.7047     0.0000    16.0000 </r>
       <r>   -63.1789     0.0000    16.0000 </r>
       <r>   -62.6530     0.0000    16.0000 </r>
       <r>   -62.1272     0.0000    16.0000 </r>
       <r>   -61.6013     0.0000    16.0000 </r>
       <r>   -61.0755     0.0000    16.0000 </r>
       <r>   -60.5497     0.0000    16.0000 </r>
       <r>   -60.0238     0.0000    16.0000 </r>
       <r>   -59.4980     0.0000    16.0000 </r>
       <r>   -58.9721     0.0000    16.0000 </r>
       <r>   -58.4463     0.0000    16.0000 </r>
       <r>   -57.9204     0.0000    16.0000 </r>
       <r>   -57.3946     0.0000    16.0000 </r>
       <r>   -56.8687     0.0000    16.0000 </r>
       <r>   -56.3429     0.0000    16.0000 </r>
       <r>   -55.8171     0.0000    16.0000 </r>
       <r>   -55.2912     0.0000    16.0000 </r>
       <r>   -54.7654     0.0000    16.0000 </r>
       <r>   -54.2395     0.0000    16.0000 </r>
       <r>   -53.7137     0.0000    16.0000 </r>
       <r>   -53.1878     0.0000    16.0000 </r>
       <r>   -52.6620     0.0000    16.0000 </r>
       <r>   -52.1361     0.0000    16.0000 </r>
       <r>   -51.6103     0.0000    16.0000 </r>
       <r>   -51.0845     0.0000    16.0000 </r>
       <r>   -50.5586     0.0000    16.0000 </r>
       <r>   -50.0328     0.0000    16.0000 </r>
       <r>   -49.5069     0.0000    16.0000 </r>
       <r>   -48.9811     0.0000    16.0000 </r>
       <r>   -48.4552     0.0000    16.0000 </r>
       <r>   -47.9294     0.0000    16.0000 </r>
       <r>   -47.4035     0.0000    16.0000 </r>
       <r>   -46.8777     0.0000    16.0000 </r>
       <r>   -46.3518     0.0000    16.0000 </r>
       <r>   -45.8260     0.0000    16.0000 </r>
       <r>   -45.3002     0.0000    16.0000 </r>
       <r>   -44.7743     0.0000    16.0000 </r>
       <r>   -44.2485     0.0000    16.0000 </r>
       <r>   -43.7226     0.0000    16.0000 </r>
       <r>   -43.1968     0.0000    16.0000 </r>
       <r>   -42.6709     0.0000    16.0000 </r>
       <r>   -42.1451     0.0000    16.0000 </r>
       <r>   -41.6192     0.0000    16.0000 </r>
       <r>   -41.0934     0.0000    16.0000 </r>
       <r>   -40.5676     0.0000    16.0000 </r>
       <r>   -40.0417     0.0000    16.0000 </r>
       <r>   -39.5159     0.0000    16.0000 </r>
       <r>   -38.9900     0.0000    16.0000 </r>
       <r>   -38.4642     0.0000    16.0000 </r>
       <r>   -37.9383     0.0000    16.0000 </r>
       <r>   -37.4125     0.0000    16.0000 </r>
       <r>   -36.8866     0.0000    16.0000 </r>
       <r>   -36.3608     0.0000    16.0000 </r>
       <r>   -35.8350     0.0000    16.0000 </r>
       <r>   -35.3091     0.0000    16.0000 </r>
       <r>   -34.7833     0.0000    16.0000 </r>
       <r>   -34.2574     0.0000    16.0000 </r>
       <r>   -33.7316     0.0000    16.0000 </r>
       <r>   -33.2057     0.0000    16.0000 </r>
       <r>   -32.6799     0.0000    16.0000 </r>
       <r>   -32.1540     0.0000    16.0000 </r>
       <r>   -31.6282     0.0000    16.0000 </r>
       <r>   -31.1023     0.0000    16.0000 </r>
       <r>   -30.5765     0.0000    16.0000 </r>
       <r>   -30.0507     0.0000    16.0000 </r>
       <r>   -29.5248     0.0000    16.0000 </r>
       <r>   -28.9990     0.0000    16.0000 </r>
       <r>   -28.4731     0.0000    16.0000 </r>
       <r>   -27.9473     0.0000    16.0000 </r>
       <r>   -27.4214     0.0000    16.0000 </r>
       <r>   -26.8956     0.0000    16.0000 </r>
       <r>   -26.3697     0.0000    16.0000 </r>
       <r>   -25.8439     0.0000    16.0000 </r>
       <r>   -25.3181     0.0000    16.0000 </r>
       <r>   -24.7922     0.0000    16.0000 </r>
       <r>   -24.2664     0.0000    16.0000 </r>
       <r>   -23.7405     0.0000    16.0000 </r>
       <r>   -23.2147     0.0000    16.0000 </r>
       <r>   -22.6888     0.0000    16.0000 </r>
       <r>   -22.1630     0.0000    16.0000 </r>
       <r>   -21.6371     0.0000    16.0000 </r>
       <r>   -21.1113     0.0000    16.0000 </r>
       <r>   -20.5855     0.0000    16.0000 </r>
       <r>   -20.0596     0.0000    16.0000 </r>
       <r>   -19.5338     0.0000    16.0000 </r>
       <r>   -19.0079     0.0000    16.0000 </r>
       <r>   -18.4821     0.0000    16.0000 </r>
       <r>   -17.9562     0.0000    16.0000 </r>
       <r>   -17.4304     0.0000    16.0000 </r>
       <r>   -16.9045     0.0000    16.0000 </r>
       <r>   -16.3787     0.0000    16.0000 </r>
       <r>   -15.8528     0.0000    16.0000 </r>
       <r>   -15.3270     0.0000    16.0000 </r>
       <r>   -14.8012     0.0000    16.0000 </r>
       <r>   -14.2753     0.0000    16.0000 </r>
       <r>   -13.7495     0.0000    16.0000 </r>
       <r>   -13.2236     0.0000    16.0000 </r>
       <r>   -12.6978     0.0000    16.0000 </r>
       <r>   -12.1719     0.0000    16.0000 </r>
       <r>   -11.6461     0.0000    16.0000 </r>
       <r>   -11.1202     0.0000    16.0000 </r>
       <r>   -10.5944     0.0000    16.0000 </r>
       <r>   -10.0686     0.0000    16.0000 </r>
       <r>    -9.5427     0.0000    16.0000 </r>
       <r>    -9.0169     0.1630    16.0857 </r>
       <r>    -8.4910     0.0000    16.2500 </r>
       <r>    -7.9652     0.0000    16.2500 </r>
       <r>    -7.4393     0.0000    16.2500 </r>
       <r>    -6.9135     0.0000    16.2500 </r>
       <r>    -6.3876     1.9017    17.2500 </r>
       <r>    -5.8618     0.0000    17.2500 </r>
       <r>    -5.3359     0.0000    17.2500 </r>
       <r>    -4.8101     2.8476    18.7474 </r>
       <r>    -4.2843     0.0000    18.7500 </r>
       <r>    -3.7584     1.9017    19.7500 </r>
       <r>    -3.2326     0.0000    19.7500 </r>
       <r>    -2.7067     0.0000    19.7500 </r>
       <r>    -2.1809     0.0000    19.7500 </r>
       <r>    -1.6550     0.0000    19.7500 </r>
       <r>    -1.1292     0.0000    19.7500 </r>
       <r>    -0.6033     0.0000    19.7500 </r>
       <r>    -0.0775     0.0174    19.7592 </r>
       <r>     0.4483     0.0000    21.2500 </r>
       <r>     0.9742     0.0000    21.2500 </r>
       <r>     1.5000     0.0000    21.2500 </r>
       <r>     2.0259     3.8034    23.2500 </r>
       <r>     2.5517     0.0000    23.2500 </r>
       <r>     3.0776     1.4263    24.0000 </r>
       <r>     3.6034     2.8382    25.4925 </r>
       <r>     4.1293     0.0000    25.5000 </r>
       <r>     4.6551     1.9017    26.5000 </r>
       <r>     5.1809     0.0006    26.5003 </r>
       <r>     5.7068     0.0000    27.2500 </r>
       <r>     6.2326     4.2788    29.5000 </r>
       <r>     6.7585     0.0000    29.5000 </r>
       <r>     7.2843     0.0000    29.5000 </r>
       <r>     7.8102     0.0000    29.5000 </r>
       <r>     8.3360     0.0000    29.5000 </r>
       <r>     8.8619     0.0000    29.5000 </r>
       <r>     9.3877     0.0000    29.5000 </r>
       <r>     9.9136     0.0000    29.5000 </r>
       <r>    10.4394     0.1507    29.5792 </r>
       <r>    10.9652     0.0000    30.5000 </r>
       <r>    11.4911     0.0000    30.5000 </r>
       <r>    12.0169     0.0000    30.5000 </r>
       <r>    12.5428     0.0000    30.5000 </r>
       <r>    13.0686     2.8526    32.0000 </r>
       <r>    13.5945     0.0000    32.0000 </r>
       <r>    14.1203     0.0000    32.0000 </r>
       <r>    14.6462     0.0000    32.0000 </r>
       <r>    15.1720     0.0000    32.0000 </r>
       <r>    15.6978     0.0000    32.0000 </r>
       <r>    16.2237     0.0000    32.0000 </r>
       <r>    16.7495     0.0000    32.0000 </r>
       <r>    17.2754     0.0000    32.0000 </r>
       <r>    17.8012     0.0000    32.0000 </r>
       <r>    18.3271     0.0000    32.0000 </r>
       <r>    18.8529     0.0000    32.0000 </r>
       <r>    19.3788     0.0000    32.0000 </r>
       <r>    19.9046     0.0000    32.0000 </r>
      </set>
     </set>
    </array>
   </total>
  </dos>
 </calculation>
 <structure name="finalpos" >
  <crystal>
   <varray name="basis" >
    <v>       3.34892000       0.00000000       1.93350000 </v>
    <v>       1.11630700       3.15739200       1.93350000 </v>
    <v>       0.00000000       0.00000000       3.86700000 </v>
   </varray>
   <i name="volume">     40.88909039 </i>
   <varray name="rec_basis" >
    <v>       0.29860373      -0.10557239       0.00000000 </v>
    <v>       0.00000000       0.31671709       0.00000000 </v>
    <v>      -0.14930186      -0.10557235       0.25859840 </v>
   </varray>
  </crystal>
  <varray name="positions" >
   <v>       0.00000000       0.00000000       0.00000000 </v>
   <v>       0.25000000       0.25000000       0.25000000 </v>
  </varray>
 </structure>
</modeling>
