   2   2   0   0
  0.2044455E+02  0.3867000E-09  0.3867000E-09  0.3867000E-09  0.5000000E-15
   1.0000000000000000E-004
  CAR 
 unknown system                          
     19.89852617   -137.85046332  301      3.20342478      1.00000000
   -137.850  0.0000E+00  0.0000E+00
   -137.325  0.0000E+00  0.0000E+00
   -136.799  0.0000E+00  0.0000E+00
   -136.273  0.0000E+00  0.0000E+00
   -135.747  0.0000E+00  0.0000E+00
   -135.221  0.0000E+00  0.0000E+00
   -134.695  0.0000E+00  0.0000E+00
   -134.170  0.0000E+00  0.0000E+00
   -133.644  0.0000E+00  0.0000E+00
   -133.118  0.0000E+00  0.0000E+00
   -132.592  0.0000E+00  0.0000E+00
   -132.066  0.0000E+00  0.0000E+00
   -131.541  0.0000E+00  0.0000E+00
   -131.015  0.0000E+00  0.0000E+00
   -130.489  0.7607E+01  0.4000E+01
   -129.963  0.0000E+00  0.4000E+01
   -129.437  0.0000E+00  0.4000E+01
   -128.911  0.0000E+00  0.4000E+01
   -128.386  0.0000E+00  0.4000E+01
   -127.860  0.0000E+00  0.4000E+01
   -127.334  0.0000E+00  0.4000E+01
   -126.808  0.0000E+00  0.4000E+01
   -126.282  0.0000E+00  0.4000E+01
   -125.756  0.0000E+00  0.4000E+01
   -125.231  0.0000E+00  0.4000E+01
   -124.705  0.0000E+00  0.4000E+01
   -124.179  0.0000E+00  0.4000E+01
   -123.653  0.0000E+00  0.4000E+01
   -123.127  0.0000E+00  0.4000E+01
   -122.601  0.0000E+00  0.4000E+01
   -122.076  0.0000E+00  0.4000E+01
   -121.550  0.0000E+00  0.4000E+01
   -121.024  0.0000E+00  0.4000E+01
   -120.498  0.0000E+00  0.4000E+01
   -119.972  0.0000E+00  0.4000E+01
   -119.446  0.0000E+00  0.4000E+01
   -118.921  0.0000E+00  0.4000E+01
   -118.395  0.0000E+00  0.4000E+01
   -117.869  0.0000E+00  0.4000E+01
   -117.343  0.0000E+00  0.4000E+01
   -116.817  0.0000E+00  0.4000E+01
   -116.291  0.0000E+00  0.4000E+01
   -115.766  0.0000E+00  0.4000E+01
   -115.240  0.0000E+00  0.4000E+01
   -114.714  0.0000E+00  0.4000E+01
   -114.188  0.0000E+00  0.4000E+01
   -113.662  0.0000E+00  0.4000E+01
   -113.136  0.0000E+00  0.4000E+01
   -112.611  0.0000E+00  0.4000E+01
   -112.085  0.0000E+00  0.4000E+01
   -111.559  0.0000E+00  0.4000E+01
   -111.033  0.0000E+00  0.4000E+01
   -110.507  0.0000E+00  0.4000E+01
   -109.981  0.0000E+00  0.4000E+01
   -109.456  0.0000E+00  0.4000E+01
   -108.930  0.0000E+00  0.4000E+01
   -108.404  0.0000E+00  0.4000E+01
   -107.878  0.0000E+00  0.4000E+01
   -107.352  0.0000E+00  0.4000E+01
   -106.826  0.0000E+00  0.4000E+01
   -106.301  0.0000E+00  0.4000E+01
   -105.775  0.0000E+00  0.4000E+01
   -105.249  0.0000E+00  0.4000E+01
   -104.723  0.0000E+00  0.4000E+01
   -104.197  0.0000E+00  0.4000E+01
   -103.672  0.0000E+00  0.4000E+01
   -103.146  0.0000E+00  0.4000E+01
   -102.620  0.0000E+00  0.4000E+01
   -102.094  0.0000E+00  0.4000E+01
   -101.568  0.0000E+00  0.4000E+01
   -101.042  0.0000E+00  0.4000E+01
   -100.517  0.0000E+00  0.4000E+01
    -99.991  0.0000E+00  0.4000E+01
    -99.465  0.0000E+00  0.4000E+01
    -98.939  0.0000E+00  0.4000E+01
    -98.413  0.0000E+00  0.4000E+01
    -97.887  0.0000E+00  0.4000E+01
    -97.362  0.0000E+00  0.4000E+01
    -96.836  0.0000E+00  0.4000E+01
    -96.310  0.0000E+00  0.4000E+01
    -95.784  0.0000E+00  0.4000E+01
    -95.258  0.0000E+00  0.4000E+01
    -94.732  0.0000E+00  0.4000E+01
    -94.207  0.0000E+00  0.4000E+01
    -93.681  0.0000E+00  0.4000E+01
    -93.155  0.0000E+00  0.4000E+01
    -92.629  0.0000E+00  0.4000E+01
    -92.103  0.0000E+00  0.4000E+01
    -91.577  0.0000E+00  0.4000E+01
    -91.052  0.0000E+00  0.4000E+01
    -90.526  0.0000E+00  0.4000E+01
    -90.000  0.0000E+00  0.4000E+01
    -89.474  0.0000E+00  0.4000E+01
    -88.948  0.0000E+00  0.4000E+01
    -88.422  0.0000E+00  0.4000E+01
    -87.897  0.0000E+00  0.4000E+01
    -87.371  0.0000E+00  0.4000E+01
    -86.845  0.5315E-01  0.4028E+01
    -86.319  0.0000E+00  0.1600E+02
    -85.793  0.0000E+00  0.1600E+02
    -85.267  0.0000E+00  0.1600E+02
    -84.742  0.0000E+00  0.1600E+02
    -84.216  0.0000E+00  0.1600E+02
    -83.690  0.0000E+00  0.1600E+02
    -83.164  0.0000E+00  0.1600E+02
    -82.638  0.0000E+00  0.1600E+02
    -82.112  0.0000E+00  0.1600E+02
    -81.587  0.0000E+00  0.1600E+02
    -81.061  0.0000E+00  0.1600E+02
    -80.535  0.0000E+00  0.1600E+02
    -80.009  0.0000E+00  0.1600E+02
    -79.483  0.0000E+00  0.1600E+02
    -78.958  0.0000E+00  0.1600E+02
    -78.432  0.0000E+00  0.1600E+02
    -77.906  0.0000E+00  0.1600E+02
    -77.380  0.0000E+00  0.1600E+02
    -76.854  0.0000E+00  0.1600E+02
    -76.328  0.0000E+00  0.1600E+02
    -75.803  0.0000E+00  0.1600E+02
    -75.277  0.0000E+00  0.1600E+02
    -74.751  0.0000E+00  0.1600E+02
    -74.225  0.0000E+00  0.1600E+02
    -73.699  0.0000E+00  0.1600E+02
    -73.173  0.0000E+00  0.1600E+02
    -72.648  0.0000E+00  0.1600E+02
    -72.122  0.0000E+00  0.1600E+02
    -71.596  0.0000E+00  0.1600E+02
    -71.070  0.0000E+00  0.1600E+02
    -70.544  0.0000E+00  0.1600E+02
    -70.018  0.0000E+00  0.1600E+02
    -69.493  0.0000E+00  0.1600E+02
    -68.967  0.0000E+00  0.1600E+02
    -68.441  0.0000E+00  0.1600E+02
    -67.915  0.0000E+00  0.1600E+02
    -67.389  0.0000E+00  0.1600E+02
    -66.863  0.0000E+00  0.1600E+02
    -66.338  0.0000E+00  0.1600E+02
    -65.812  0.0000E+00  0.1600E+02
    -65.286  0.0000E+00  0.1600E+02
    -64.760  0.0000E+00  0.1600E+02
    -64.234  0.0000E+00  0.1600E+02
    -63.708  0.0000E+00  0.1600E+02
    -63.183  0.0000E+00  0.1600E+02
    -62.657  0.0000E+00  0.1600E+02
    -62.131  0.0000E+00  0.1600E+02
    -61.605  0.0000E+00  0.1600E+02
    -61.079  0.0000E+00  0.1600E+02
    -60.553  0.0000E+00  0.1600E+02
    -60.028  0.0000E+00  0.1600E+02
    -59.502  0.0000E+00  0.1600E+02
    -58.976  0.0000E+00  0.1600E+02
    -58.450  0.0000E+00  0.1600E+02
    -57.924  0.0000E+00  0.1600E+02
    -57.398  0.0000E+00  0.1600E+02
    -56.873  0.0000E+00  0.1600E+02
    -56.347  0.0000E+00  0.1600E+02
    -55.821  0.0000E+00  0.1600E+02
    -55.295  0.0000E+00  0.1600E+02
    -54.769  0.0000E+00  0.1600E+02
    -54.243  0.0000E+00  0.1600E+02
    -53.718  0.0000E+00  0.1600E+02
    -53.192  0.0000E+00  0.1600E+02
    -52.666  0.0000E+00  0.1600E+02
    -52.140  0.0000E+00  0.1600E+02
    -51.614  0.0000E+00  0.1600E+02
    -51.089  0.0000E+00  0.1600E+02
    -50.563  0.0000E+00  0.1600E+02
    -50.037  0.0000E+00  0.1600E+02
    -49.511  0.0000E+00  0.1600E+02
    -48.985  0.0000E+00  0.1600E+02
    -48.459  0.0000E+00  0.1600E+02
    -47.934  0.0000E+00  0.1600E+02
    -47.408  0.0000E+00  0.1600E+02
    -46.882  0.0000E+00  0.1600E+02
    -46.356  0.0000E+00  0.1600E+02
    -45.830  0.0000E+00  0.1600E+02
    -45.304  0.0000E+00  0.1600E+02
    -44.779  0.0000E+00  0.1600E+02
    -44.253  0.0000E+00  0.1600E+02
    -43.727  0.0000E+00  0.1600E+02
    -43.201  0.0000E+00  0.1600E+02
    -42.675  0.0000E+00  0.1600E+02
    -42.149  0.0000E+00  0.1600E+02
    -41.624  0.0000E+00  0.1600E+02
    -41.098  0.0000E+00  0.1600E+02
    -40.572  0.0000E+00  0.1600E+02
    -40.046  0.0000E+00  0.1600E+02
    -39.520  0.0000E+00  0.1600E+02
    -38.994  0.0000E+00  0.1600E+02
    -38.469  0.0000E+00  0.1600E+02
    -37.943  0.0000E+00  0.1600E+02
    -37.417  0.0000E+00  0.1600E+02
    -36.891  0.0000E+00  0.1600E+02
    -36.365  0.0000E+00  0.1600E+02
    -35.839  0.0000E+00  0.1600E+02
    -35.314  0.0000E+00  0.1600E+02
    -34.788  0.0000E+00  0.1600E+02
    -34.262  0.0000E+00  0.1600E+02
    -33.736  0.0000E+00  0.1600E+02
    -33.210  0.0000E+00  0.1600E+02
    -32.684  0.0000E+00  0.1600E+02
    -32.159  0.0000E+00  0.1600E+02
    -31.633  0.0000E+00  0.1600E+02
    -31.107  0.0000E+00  0.1600E+02
    -30.581  0.0000E+00  0.1600E+02
    -30.055  0.0000E+00  0.1600E+02
    -29.529  0.0000E+00  0.1600E+02
    -29.004  0.0000E+00  0.1600E+02
    -28.478  0.0000E+00  0.1600E+02
    -27.952  0.0000E+00  0.1600E+02
    -27.426  0.0000E+00  0.1600E+02
    -26.900  0.0000E+00  0.1600E+02
    -26.375  0.0000E+00  0.1600E+02
    -25.849  0.0000E+00  0.1600E+02
    -25.323  0.0000E+00  0.1600E+02
    -24.797  0.0000E+00  0.1600E+02
    -24.271  0.0000E+00  0.1600E+02
    -23.745  0.0000E+00  0.1600E+02
    -23.220  0.0000E+00  0.1600E+02
    -22.694  0.0000E+00  0.1600E+02
    -22.168  0.0000E+00  0.1600E+02
    -21.642  0.0000E+00  0.1600E+02
    -21.116  0.0000E+00  0.1600E+02
    -20.590  0.0000E+00  0.1600E+02
    -20.065  0.0000E+00  0.1600E+02
    -19.539  0.0000E+00  0.1600E+02
    -19.013  0.0000E+00  0.1600E+02
    -18.487  0.0000E+00  0.1600E+02
    -17.961  0.0000E+00  0.1600E+02
    -17.435  0.0000E+00  0.1600E+02
    -16.910  0.0000E+00  0.1600E+02
    -16.384  0.0000E+00  0.1600E+02
    -15.858  0.0000E+00  0.1600E+02
    -15.332  0.0000E+00  0.1600E+02
    -14.806  0.0000E+00  0.1600E+02
    -14.280  0.0000E+00  0.1600E+02
    -13.755  0.0000E+00  0.1600E+02
    -13.229  0.0000E+00  0.1600E+02
    -12.703  0.0000E+00  0.1600E+02
    -12.177  0.0000E+00  0.1600E+02
    -11.651  0.0000E+00  0.1600E+02
    -11.125  0.0000E+00  0.1600E+02
    -10.600  0.0000E+00  0.1600E+02
    -10.074  0.0000E+00  0.1600E+02
     -9.548  0.0000E+00  0.1600E+02
     -9.022  0.3654E+00  0.1619E+02
     -8.496  0.0000E+00  0.1667E+02
     -7.970  0.0000E+00  0.1667E+02
     -7.445  0.0000E+00  0.1667E+02
     -6.919  0.1044E-08  0.1667E+02
     -6.393  0.1268E+01  0.1733E+02
     -5.867  0.0000E+00  0.1733E+02
     -5.341  0.0000E+00  0.1733E+02
     -4.815  0.2528E+01  0.1866E+02
     -4.290  0.1666E-09  0.1867E+02
     -3.764  0.1268E+01  0.1933E+02
     -3.238  0.0000E+00  0.1933E+02
     -2.712  0.0000E+00  0.1933E+02
     -2.186  0.0000E+00  0.1933E+02
     -1.661  0.0000E+00  0.1933E+02
     -1.135  0.0000E+00  0.1933E+02
     -0.609  0.0000E+00  0.1933E+02
     -0.083  0.9303E-02  0.1934E+02
      0.443  0.0000E+00  0.2067E+02
      0.969  0.0000E+00  0.2067E+02
      1.494  0.1761E-05  0.2067E+02
      2.020  0.2536E+01  0.2200E+02
      2.546  0.0000E+00  0.2200E+02
      3.072  0.3804E+01  0.2400E+02
      3.598  0.2517E+01  0.2532E+02
      4.124  0.3109E-05  0.2533E+02
      4.649  0.1268E+01  0.2600E+02
      5.175  0.1306E-02  0.2600E+02
      5.701  0.0000E+00  0.2800E+02
      6.227  0.3803E+01  0.3000E+02
      6.753  0.0000E+00  0.3000E+02
      7.279  0.0000E+00  0.3000E+02
      7.804  0.0000E+00  0.3000E+02
      8.330  0.0000E+00  0.3000E+02
      8.856  0.0000E+00  0.3000E+02
      9.382  0.0000E+00  0.3000E+02
      9.908  0.0000E+00  0.3000E+02
     10.434  0.6841E-01  0.3004E+02
     10.959  0.0000E+00  0.3067E+02
     11.485  0.0000E+00  0.3067E+02
     12.011  0.0000E+00  0.3067E+02
     12.537  0.8200E-07  0.3067E+02
     13.063  0.2536E+01  0.3200E+02
     13.589  0.0000E+00  0.3200E+02
     14.114  0.0000E+00  0.3200E+02
     14.640  0.0000E+00  0.3200E+02
     15.166  0.0000E+00  0.3200E+02
     15.692  0.0000E+00  0.3200E+02
     16.218  0.0000E+00  0.3200E+02
     16.744  0.0000E+00  0.3200E+02
     17.269  0.0000E+00  0.3200E+02
     17.795  0.0000E+00  0.3200E+02
     18.321  0.0000E+00  0.3200E+02
     18.847  0.0000E+00  0.3200E+02
     19.373  0.0000E+00  0.3200E+02
     19.899  0.0000E+00  0.3200E+02
