    2    2    1    1
  0.2044455E+02  0.3867000E-09  0.3867000E-09  0.3867000E-09  0.5000000E-15
   1.0000000000000000E-004
  CAR 
 unknown system                          
     24      3     16

  0.0000000E+00  0.0000000E+00  0.0000000E+00  0.3333333E+00
    1     -130.680055
    2     -130.649929
    3      -86.752570
    4      -86.752568
    5      -86.752562
    6      -86.739850
    7      -86.739848
    8      -86.739838
    9       -9.002373
   10        2.878574
   11        2.878575
   12        2.878673
   13        5.295284
   14        5.295285
   15        5.295362
   16        6.002591

  0.0000000E+00  0.0000000E+00  0.5000000E+00  0.3333333E+00
    1     -130.652404
    2     -130.631905
    3      -86.749819
    4      -86.749814
    5      -86.748752
    6      -86.736946
    7      -86.735617
    8      -86.735608
    9       -6.705633
   10       -4.066232
   11        1.665063
   12        1.665185
   13        4.285160
   14        6.080491
   15        6.080557
   16       10.490424

  0.0000000E+00  0.5000000E+00  0.5000000E+00  0.3333333E+00
    1     -130.623888
    2     -130.623888
    3      -86.749049
    4      -86.749046
    5      -86.739146
    6      -86.739146
    7      -86.729752
    8      -86.729750
    9       -4.913270
   10       -4.913223
   11        0.011752
   12        0.011806
   13        3.511858
   14        3.511924
   15       12.727915
   16       12.728118
