PROCAR lm decomposed
# of k-points:    3         # of bands:  16         # of ions:   2

 k-point    1 :    0.00000000 0.00000000 0.00000000     weight = 0.12500000

band   1 # energy -130.67824420 # occ.  2.00000000

ion      s     py     pz     px    dxy    dyz    dz2    dxz    dx2    f-3    f-2    f-1     f0     f1     f2     f3    tot
  1  0.500  0.000  0.000  0.000  0.000  0.000  0.000  0.000  0.000  0.000  0.000  0.000  0.000  0.000  0.000  0.000  0.500
  2  0.500  0.000  0.000  0.000  0.000  0.000  0.000  0.000  0.000  0.000  0.000  0.000  0.000  0.000  0.000  0.000  0.500
tot  1.001  0.000  0.000  0.000  0.000  0.000  0.000  0.000  0.000  0.000  0.000  0.000  0.000  0.000  0.000  0.000  1.001


band   2 # energy -130.64807632 # occ.  2.00000000

ion      s     py     pz     px    dxy    dyz    dz2    dxz    dx2    f-3    f-2    f-1     f0     f1     f2     f3    tot
  1  0.501  0.000  0.000  0.000  0.000  0.000  0.000  0.000  0.000  0.000  0.000  0.000  0.000  0.000  0.000  0.000  0.501
  2  0.501  0.000  0.000  0.000  0.000  0.000  0.000  0.000  0.000  0.000  0.000  0.000  0.000  0.000  0.000  0.000  0.501
tot  1.002  0.000  0.000  0.000  0.000  0.000  0.000  0.000  0.000  0.000  0.000  0.000  0.000  0.000  0.000  0.000  1.002


band   3 # energy  -86.75058638 # occ.  2.00000000

ion      s     py     pz     px    dxy    dyz    dz2    dxz    dx2    f-3    f-2    f-1     f0     f1     f2     f3    tot
  1  0.000  0.297  0.001  0.200  0.000  0.000  0.000  0.000  0.000  0.000  0.000  0.000  0.000  0.000  0.000  0.000  0.498
  2  0.000  0.297  0.001  0.200  0.000  0.000  0.000  0.000  0.000  0.000  0.000  0.000  0.000  0.000  0.000  0.000  0.498
tot  0.000  0.595  0.001  0.400  0.000  0.000  0.000  0.000  0.000  0.000  0.000  0.000  0.000  0.000  0.000  0.000  0.996


band   4 # energy  -86.75058482 # occ.  2.00000000

ion      s     py     pz     px    dxy    dyz    dz2    dxz    dx2    f-3    f-2    f-1     f0     f1     f2     f3    tot
  1  0.000  0.145  0.156  0.197  0.000  0.000  0.000  0.000  0.000  0.000  0.000  0.000  0.000  0.000  0.000  0.000  0.498
  2  0.000  0.145  0.156  0.197  0.000  0.000  0.000  0.000  0.000  0.000  0.000  0.000  0.000  0.000  0.000  0.000  0.498
tot  0.000  0.291  0.311  0.394  0.000  0.000  0.000  0.000  0.000  0.000  0.000  0.000  0.000  0.000  0.000  0.000  0.996


band   5 # energy  -86.75057990 # occ.  2.00000000

ion      s     py     pz     px    dxy    dyz    dz2    dxz    dx2    f-3    f-2    f-1     f0     f1     f2     f3    tot
  1  0.000  0.055  0.342  0.101  0.000  0.000  0.000  0.000  0.000  0.000  0.000  0.000  0.000  0.000  0.000  0.000  0.498
  2  0.000  0.055  0.342  0.101  0.000  0.000  0.000  0.000  0.000  0.000  0.000  0.000  0.000  0.000  0.000  0.000  0.498
tot  0.000  0.110  0.683  0.202  0.000  0.000  0.000  0.000  0.000  0.000  0.000  0.000  0.000  0.000  0.000  0.000  0.996


band   6 # energy  -86.73786037 # occ.  2.00000000

ion      s     py     pz     px    dxy    dyz    dz2    dxz    dx2    f-3    f-2    f-1     f0     f1     f2     f3    tot
  1  0.000  0.279  0.001  0.218  0.000  0.000  0.000  0.000  0.000  0.000  0.000  0.000  0.000  0.000  0.000  0.000  0.498
  2  0.000  0.279  0.001  0.218  0.000  0.000  0.000  0.000  0.000  0.000  0.000  0.000  0.000  0.000  0.000  0.000  0.498
tot  0.000  0.557  0.003  0.436  0.000  0.000  0.000  0.000  0.000  0.000  0.000  0.000  0.000  0.000  0.000  0.000  0.996


band   7 # energy  -86.73785874 # occ.  2.00000000

ion      s     py     pz     px    dxy    dyz    dz2    dxz    dx2    f-3    f-2    f-1     f0     f1     f2     f3    tot
  1  0.000  0.162  0.157  0.179  0.000  0.000  0.000  0.000  0.000  0.000  0.000  0.000  0.000  0.000  0.000  0.000  0.498
  2  0.000  0.162  0.157  0.179  0.000  0.000  0.000  0.000  0.000  0.000  0.000  0.000  0.000  0.000  0.000  0.000  0.498
tot  0.000  0.325  0.313  0.358  0.000  0.000  0.000  0.000  0.000  0.000  0.000  0.000  0.000  0.000  0.000  0.000  0.996


band   8 # energy  -86.73785071 # occ.  2.00000000

ion      s     py     pz     px    dxy    dyz    dz2    dxz    dx2    f-3    f-2    f-1     f0     f1     f2     f3    tot
  1  0.000  0.057  0.340  0.101  0.000  0.000  0.000  0.000  0.000  0.000  0.000  0.000  0.000  0.000  0.000  0.000  0.498
  2  0.000  0.057  0.340  0.101  0.000  0.000  0.000  0.000  0.000  0.000  0.000  0.000  0.000  0.000  0.000  0.000  0.498
tot  0.000  0.114  0.680  0.202  0.000  0.000  0.000  0.000  0.000  0.000  0.000  0.000  0.000  0.000  0.000  0.000  0.996


band   9 # energy   -9.00255598 # occ.  2.00000000

ion      s     py     pz     px    dxy    dyz    dz2    dxz    dx2    f-3    f-2    f-1     f0     f1     f2     f3    tot
  1  0.115  0.000  0.000  0.000  0.000  0.000  0.000  0.000  0.000  0.000  0.000  0.000  0.000  0.000  0.000  0.000  0.115
  2  0.115  0.000  0.000  0.000  0.000  0.000  0.000  0.000  0.000  0.000  0.000  0.000  0.000  0.000  0.000  0.000  0.115
tot  0.230  0.000  0.000  0.000  0.000  0.000  0.000  0.000  0.000  0.000  0.000  0.000  0.000  0.000  0.000  0.000  0.230


band  10 # energy    2.87508828 # occ.  2.00000000

ion      s     py     pz     px    dxy    dyz    dz2    dxz    dx2    f-3    f-2    f-1     f0     f1     f2     f3    tot
  1  0.000  0.068  0.000  0.046  0.002  0.000  0.000  0.000  0.011  0.000  0.000  0.000  0.000  0.000  0.000  0.000  0.128
  2  0.000  0.068  0.000  0.046  0.002  0.000  0.000  0.000  0.011  0.000  0.000  0.000  0.000  0.000  0.000  0.000  0.128
tot  0.000  0.136  0.001  0.093  0.003  0.000  0.000  0.000  0.022  0.000  0.000  0.000  0.000  0.000  0.000  0.000  0.255


band  11 # energy    2.87508907 # occ.  2.00000000

ion      s     py     pz     px    dxy    dyz    dz2    dxz    dx2    f-3    f-2    f-1     f0     f1     f2     f3    tot
  1  0.000  0.034  0.038  0.043  0.002  0.001  0.006  0.003  0.001  0.000  0.000  0.000  0.000  0.000  0.000  0.000  0.128
  2  0.000  0.034  0.038  0.043  0.002  0.001  0.006  0.003  0.001  0.000  0.000  0.000  0.000  0.000  0.000  0.000  0.128
tot  0.000  0.068  0.075  0.086  0.003  0.003  0.013  0.006  0.001  0.000  0.000  0.000  0.000  0.000  0.000  0.000  0.255


band  12 # energy    2.87518638 # occ.  2.00000000

ion      s     py     pz     px    dxy    dyz    dz2    dxz    dx2    f-3    f-2    f-1     f0     f1     f2     f3    tot
  1  0.000  0.013  0.077  0.025  0.001  0.003  0.003  0.006  0.000  0.000  0.000  0.000  0.000  0.000  0.000  0.000  0.128
  2  0.000  0.013  0.077  0.025  0.001  0.003  0.003  0.006  0.000  0.000  0.000  0.000  0.000  0.000  0.000  0.000  0.128
tot  0.000  0.025  0.154  0.050  0.002  0.006  0.006  0.011  0.000  0.000  0.000  0.000  0.000  0.000  0.000  0.000  0.255


band  13 # energy    5.29909239 # occ.  0.00000000

ion      s     py     pz     px    dxy    dyz    dz2    dxz    dx2    f-3    f-2    f-1     f0     f1     f2     f3    tot
  1  0.000  0.026  0.028  0.029  0.002  0.002  0.007  0.003  0.001  0.000  0.000  0.000  0.000  0.000  0.000  0.000  0.098
  2  0.000  0.026  0.028  0.029  0.002  0.002  0.007  0.003  0.001  0.000  0.000  0.000  0.000  0.000  0.000  0.000  0.098
tot  0.000  0.051  0.056  0.059  0.004  0.003  0.015  0.007  0.002  0.000  0.000  0.000  0.000  0.000  0.000  0.000  0.196


band  14 # energy    5.29909311 # occ.  0.00000000

ion      s     py     pz     px    dxy    dyz    dz2    dxz    dx2    f-3    f-2    f-1     f0     f1     f2     f3    tot
  1  0.000  0.048  0.000  0.035  0.002  0.000  0.000  0.000  0.013  0.000  0.000  0.000  0.000  0.000  0.000  0.000  0.098
  2  0.000  0.048  0.000  0.035  0.002  0.000  0.000  0.000  0.013  0.000  0.000  0.000  0.000  0.000  0.000  0.000  0.098
tot  0.000  0.096  0.001  0.069  0.004  0.000  0.000  0.000  0.025  0.000  0.000  0.000  0.000  0.000  0.000  0.000  0.196


band  15 # energy    5.29916923 # occ.  0.00000000

ion      s     py     pz     px    dxy    dyz    dz2    dxz    dx2    f-3    f-2    f-1     f0     f1     f2     f3    tot
  1  0.000  0.009  0.055  0.019  0.001  0.003  0.004  0.007  0.000  0.000  0.000  0.000  0.000  0.000  0.000  0.000  0.098
  2  0.000  0.009  0.055  0.019  0.001  0.003  0.004  0.007  0.000  0.000  0.000  0.000  0.000  0.000  0.000  0.000  0.098
tot  0.000  0.019  0.110  0.038  0.002  0.007  0.008  0.013  0.000  0.000  0.000  0.000  0.000  0.000  0.000  0.000  0.196


band  16 # energy    6.00536667 # occ.  0.00000000

ion      s     py     pz     px    dxy    dyz    dz2    dxz    dx2    f-3    f-2    f-1     f0     f1     f2     f3    tot
  1  0.244  0.000  0.000  0.000  0.000  0.000  0.000  0.000  0.000  0.000  0.000  0.000  0.000  0.000  0.000  0.000  0.245
  2  0.244  0.000  0.000  0.000  0.000  0.000  0.000  0.000  0.000  0.000  0.000  0.000  0.000  0.000  0.000  0.000  0.245
tot  0.488  0.000  0.000  0.000  0.000  0.000  0.000  0.000  0.000  0.001  0.000  0.000  0.000  0.001  0.000  0.000  0.490



 k-point    2 :    0.50000000 0.00000000 0.00000000     weight = 0.50000000

band   1 # energy -130.65057050 # occ.  2.00000000

ion      s     py     pz     px    dxy    dyz    dz2    dxz    dx2    f-3    f-2    f-1     f0     f1     f2     f3    tot
  1  0.501  0.000  0.000  0.000  0.000  0.000  0.000  0.000  0.000  0.000  0.000  0.000  0.000  0.000  0.000  0.000  0.501
  2  0.501  0.000  0.000  0.000  0.000  0.000  0.000  0.000  0.000  0.000  0.000  0.000  0.000  0.000  0.000  0.000  0.501
tot  1.002  0.000  0.000  0.000  0.000  0.000  0.000  0.000  0.000  0.000  0.000  0.000  0.000  0.000  0.000  0.000  1.002


band   2 # energy -130.63007184 # occ.  2.00000000

ion      s     py     pz     px    dxy    dyz    dz2    dxz    dx2    f-3    f-2    f-1     f0     f1     f2     f3    tot
  1  0.501  0.000  0.000  0.000  0.000  0.000  0.000  0.000  0.000  0.000  0.000  0.000  0.000  0.000  0.000  0.000  0.501
  2  0.501  0.000  0.000  0.000  0.000  0.000  0.000  0.000  0.000  0.000  0.000  0.000  0.000  0.000  0.000  0.000  0.501
tot  1.002  0.000  0.000  0.000  0.000  0.000  0.000  0.000  0.000  0.000  0.000  0.000  0.000  0.000  0.000  0.000  1.002


band   3 # energy  -86.74783640 # occ.  2.00000000

ion      s     py     pz     px    dxy    dyz    dz2    dxz    dx2    f-3    f-2    f-1     f0     f1     f2     f3    tot
  1  0.000  0.383  0.068  0.048  0.000  0.000  0.000  0.000  0.000  0.000  0.000  0.000  0.000  0.000  0.000  0.000  0.498
  2  0.000  0.383  0.068  0.048  0.000  0.000  0.000  0.000  0.000  0.000  0.000  0.000  0.000  0.000  0.000  0.000  0.498
tot  0.000  0.765  0.135  0.096  0.000  0.000  0.000  0.000  0.000  0.000  0.000  0.000  0.000  0.000  0.000  0.000  0.996


band   4 # energy  -86.74783430 # occ.  2.00000000

ion      s     py     pz     px    dxy    dyz    dz2    dxz    dx2    f-3    f-2    f-1     f0     f1     f2     f3    tot
  1  0.000  0.060  0.430  0.008  0.000  0.000  0.000  0.000  0.000  0.000  0.000  0.000  0.000  0.000  0.000  0.000  0.498
  2  0.000  0.060  0.430  0.008  0.000  0.000  0.000  0.000  0.000  0.000  0.000  0.000  0.000  0.000  0.000  0.000  0.498
tot  0.000  0.120  0.861  0.015  0.000  0.000  0.000  0.000  0.000  0.000  0.000  0.000  0.000  0.000  0.000  0.000  0.996


band   5 # energy  -86.74676604 # occ.  2.00000000

ion      s     py     pz     px    dxy    dyz    dz2    dxz    dx2    f-3    f-2    f-1     f0     f1     f2     f3    tot
  1  0.000  0.055  0.000  0.443  0.000  0.000  0.000  0.000  0.000  0.000  0.000  0.000  0.000  0.000  0.000  0.000  0.498
  2  0.000  0.055  0.000  0.443  0.000  0.000  0.000  0.000  0.000  0.000  0.000  0.000  0.000  0.000  0.000  0.000  0.498
tot  0.000  0.111  0.000  0.885  0.000  0.000  0.000  0.000  0.000  0.000  0.000  0.000  0.000  0.000  0.000  0.000  0.996


band   6 # energy  -86.73496240 # occ.  2.00000000

ion      s     py     pz     px    dxy    dyz    dz2    dxz    dx2    f-3    f-2    f-1     f0     f1     f2     f3    tot
  1  0.000  0.055  0.000  0.443  0.000  0.000  0.000  0.000  0.000  0.000  0.000  0.000  0.000  0.000  0.000  0.000  0.498
  2  0.000  0.055  0.000  0.443  0.000  0.000  0.000  0.000  0.000  0.000  0.000  0.000  0.000  0.000  0.000  0.000  0.498
tot  0.000  0.111  0.000  0.886  0.000  0.000  0.000  0.000  0.000  0.000  0.000  0.000  0.000  0.000  0.000  0.000  0.996


band   7 # energy  -86.73362344 # occ.  2.00000000

ion      s     py     pz     px    dxy    dyz    dz2    dxz    dx2    f-3    f-2    f-1     f0     f1     f2     f3    tot
  1  0.000  0.348  0.107  0.044  0.000  0.000  0.000  0.000  0.000  0.000  0.000  0.000  0.000  0.000  0.000  0.000  0.498
  2  0.000  0.348  0.107  0.044  0.000  0.000  0.000  0.000  0.000  0.000  0.000  0.000  0.000  0.000  0.000  0.000  0.498
tot  0.000  0.696  0.213  0.087  0.000  0.000  0.000  0.000  0.000  0.000  0.000  0.000  0.000  0.000  0.000  0.000  0.996


band   8 # energy  -86.73361679 # occ.  2.00000000

ion      s     py     pz     px    dxy    dyz    dz2    dxz    dx2    f-3    f-2    f-1     f0     f1     f2     f3    tot
  1  0.000  0.095  0.392  0.012  0.000  0.000  0.000  0.000  0.000  0.000  0.000  0.000  0.000  0.000  0.000  0.000  0.498
  2  0.000  0.095  0.392  0.012  0.000  0.000  0.000  0.000  0.000  0.000  0.000  0.000  0.000  0.000  0.000  0.000  0.498
tot  0.000  0.189  0.783  0.024  0.000  0.000  0.000  0.000  0.000  0.000  0.000  0.000  0.000  0.000  0.000  0.000  0.996


band   9 # energy   -6.70580982 # occ.  2.00000000

ion      s     py     pz     px    dxy    dyz    dz2    dxz    dx2    f-3    f-2    f-1     f0     f1     f2     f3    tot
  1  0.125  0.001  0.000  0.006  0.000  0.000  0.000  0.000  0.001  0.000  0.000  0.000  0.000  0.000  0.000  0.000  0.133
  2  0.125  0.001  0.000  0.006  0.000  0.000  0.000  0.000  0.001  0.000  0.000  0.000  0.000  0.000  0.000  0.000  0.133
tot  0.251  0.001  0.000  0.011  0.001  0.000  0.001  0.000  0.001  0.000  0.000  0.000  0.000  0.000  0.000  0.000  0.266


band  10 # energy   -4.06661519 # occ.  2.00000000

ion      s     py     pz     px    dxy    dyz    dz2    dxz    dx2    f-3    f-2    f-1     f0     f1     f2     f3    tot
  1  0.057  0.005  0.000  0.041  0.000  0.000  0.000  0.000  0.000  0.000  0.000  0.000  0.000  0.000  0.000  0.000  0.103
  2  0.057  0.005  0.000  0.041  0.000  0.000  0.000  0.000  0.000  0.000  0.000  0.000  0.000  0.000  0.000  0.000  0.103
tot  0.114  0.010  0.000  0.081  0.000  0.000  0.000  0.000  0.000  0.000  0.000  0.000  0.000  0.000  0.000  0.000  0.206


band  11 # energy    1.66328562 # occ.  2.00000000

ion      s     py     pz     px    dxy    dyz    dz2    dxz    dx2    f-3    f-2    f-1     f0     f1     f2     f3    tot
  1  0.000  0.076  0.028  0.010  0.000  0.001  0.003  0.000  0.001  0.000  0.000  0.000  0.000  0.000  0.000  0.000  0.119
  2  0.000  0.076  0.028  0.010  0.000  0.001  0.003  0.000  0.001  0.000  0.000  0.000  0.000  0.000  0.000  0.000  0.119
tot  0.000  0.152  0.056  0.019  0.000  0.002  0.006  0.001  0.002  0.000  0.000  0.000  0.000  0.000  0.000  0.000  0.238


band  12 # energy    1.66340740 # occ.  2.00000000

ion      s     py     pz     px    dxy    dyz    dz2    dxz    dx2    f-3    f-2    f-1     f0     f1     f2     f3    tot
  1  0.000  0.025  0.086  0.003  0.000  0.003  0.001  0.001  0.000  0.000  0.000  0.000  0.000  0.000  0.000  0.000  0.119
  2  0.000  0.025  0.086  0.003  0.000  0.003  0.001  0.001  0.000  0.000  0.000  0.000  0.000  0.000  0.000  0.000  0.119
tot  0.000  0.050  0.172  0.006  0.000  0.006  0.002  0.002  0.001  0.000  0.000  0.000  0.000  0.000  0.000  0.000  0.238


band  13 # energy    4.28647323 # occ.  0.00000000

ion      s     py     pz     px    dxy    dyz    dz2    dxz    dx2    f-3    f-2    f-1     f0     f1     f2     f3    tot
  1  0.124  0.001  0.000  0.010  0.004  0.000  0.004  0.000  0.006  0.000  0.000  0.000  0.000  0.000  0.000  0.000  0.150
  2  0.124  0.001  0.000  0.010  0.004  0.000  0.004  0.000  0.006  0.000  0.000  0.000  0.000  0.000  0.000  0.000  0.150
tot  0.248  0.002  0.000  0.020  0.008  0.000  0.007  0.000  0.013  0.000  0.000  0.001  0.000  0.000  0.000  0.000  0.299


band  14 # energy    6.08311189 # occ.  0.00000000

ion      s     py     pz     px    dxy    dyz    dz2    dxz    dx2    f-3    f-2    f-1     f0     f1     f2     f3    tot
  1  0.000  0.011  0.040  0.001  0.002  0.020  0.005  0.000  0.000  0.000  0.000  0.000  0.000  0.000  0.000  0.000  0.079
  2  0.000  0.011  0.040  0.001  0.002  0.020  0.005  0.000  0.000  0.000  0.000  0.000  0.000  0.000  0.000  0.000  0.079
tot  0.000  0.023  0.079  0.003  0.003  0.040  0.009  0.000  0.001  0.000  0.000  0.000  0.000  0.000  0.000  0.000  0.158


band  15 # energy    6.08317679 # occ.  0.00000000

ion      s     py     pz     px    dxy    dyz    dz2    dxz    dx2    f-3    f-2    f-1     f0     f1     f2     f3    tot
  1  0.000  0.035  0.013  0.004  0.005  0.006  0.014  0.000  0.001  0.000  0.000  0.000  0.000  0.000  0.000  0.000  0.079
  2  0.000  0.035  0.013  0.004  0.005  0.006  0.014  0.000  0.001  0.000  0.000  0.000  0.000  0.000  0.000  0.000  0.079
tot  0.000  0.071  0.026  0.009  0.010  0.013  0.028  0.000  0.002  0.000  0.000  0.000  0.000  0.000  0.000  0.000  0.158


band  16 # energy   10.48925363 # occ.  0.00000000

ion      s     py     pz     px    dxy    dyz    dz2    dxz    dx2    f-3    f-2    f-1     f0     f1     f2     f3    tot
  1  0.004  0.004  0.000  0.029  0.002  0.000  0.002  0.000  0.004  0.000  0.000  0.002  0.000  0.000  0.000  0.000  0.046
  2  0.004  0.004  0.000  0.029  0.002  0.000  0.002  0.000  0.004  0.000  0.000  0.002  0.000  0.000  0.000  0.000  0.046
tot  0.008  0.007  0.000  0.057  0.005  0.000  0.004  0.000  0.008  0.000  0.000  0.003  0.000  0.000  0.000  0.000  0.093



 k-point    3 :    0.50000000 0.50000000 0.00000000     weight = 0.37500000

band   1 # energy -130.62205395 # occ.  2.00000000

ion      s     py     pz     px    dxy    dyz    dz2    dxz    dx2    f-3    f-2    f-1     f0     f1     f2     f3    tot
  1  0.500  0.000  0.000  0.000  0.000  0.000  0.000  0.000  0.000  0.000  0.000  0.000  0.000  0.000  0.000  0.000  0.500
  2  0.502  0.000  0.000  0.000  0.000  0.000  0.000  0.000  0.000  0.000  0.000  0.000  0.000  0.000  0.000  0.000  0.502
tot  1.003  0.000  0.000  0.000  0.000  0.000  0.000  0.000  0.000  0.000  0.000  0.000  0.000  0.000  0.000  0.000  1.003


band   2 # energy -130.62205368 # occ.  2.00000000

ion      s     py     pz     px    dxy    dyz    dz2    dxz    dx2    f-3    f-2    f-1     f0     f1     f2     f3    tot
  1  0.502  0.000  0.000  0.000  0.000  0.000  0.000  0.000  0.000  0.000  0.000  0.000  0.000  0.000  0.000  0.000  0.502
  2  0.500  0.000  0.000  0.000  0.000  0.000  0.000  0.000  0.000  0.000  0.000  0.000  0.000  0.000  0.000  0.000  0.500
tot  1.003  0.000  0.000  0.000  0.000  0.000  0.000  0.000  0.000  0.000  0.000  0.000  0.000  0.000  0.000  0.000  1.003


band   3 # energy  -86.74706724 # occ.  2.00000000

ion      s     py     pz     px    dxy    dyz    dz2    dxz    dx2    f-3    f-2    f-1     f0     f1     f2     f3    tot
  1  0.000  0.332  0.000  0.166  0.000  0.000  0.000  0.000  0.000  0.000  0.000  0.000  0.000  0.000  0.000  0.000  0.498
  2  0.000  0.332  0.000  0.166  0.000  0.000  0.000  0.000  0.000  0.000  0.000  0.000  0.000  0.000  0.000  0.000  0.498
tot  0.000  0.664  0.000  0.332  0.000  0.000  0.000  0.000  0.000  0.000  0.000  0.000  0.000  0.000  0.000  0.000  0.996


band   4 # energy  -86.74706338 # occ.  2.00000000

ion      s     py     pz     px    dxy    dyz    dz2    dxz    dx2    f-3    f-2    f-1     f0     f1     f2     f3    tot
  1  0.000  0.000  0.498  0.000  0.000  0.000  0.000  0.000  0.000  0.000  0.000  0.000  0.000  0.000  0.000  0.000  0.498
  2  0.000  0.000  0.498  0.000  0.000  0.000  0.000  0.000  0.000  0.000  0.000  0.000  0.000  0.000  0.000  0.000  0.498
tot  0.000  0.000  0.996  0.000  0.000  0.000  0.000  0.000  0.000  0.000  0.000  0.000  0.000  0.000  0.000  0.000  0.996


band   5 # energy  -86.73715970 # occ.  2.00000000

ion      s     py     pz     px    dxy    dyz    dz2    dxz    dx2    f-3    f-2    f-1     f0     f1     f2     f3    tot
  1  0.000  0.247  0.000  0.495  0.000  0.000  0.000  0.000  0.000  0.000  0.000  0.000  0.000  0.000  0.000  0.000  0.742
  2  0.000  0.085  0.000  0.170  0.000  0.000  0.000  0.000  0.000  0.000  0.000  0.000  0.000  0.000  0.000  0.000  0.254
tot  0.000  0.332  0.000  0.664  0.000  0.000  0.000  0.000  0.000  0.000  0.000  0.000  0.000  0.000  0.000  0.000  0.996


band   6 # energy  -86.73715954 # occ.  2.00000000

ion      s     py     pz     px    dxy    dyz    dz2    dxz    dx2    f-3    f-2    f-1     f0     f1     f2     f3    tot
  1  0.000  0.085  0.000  0.170  0.000  0.000  0.000  0.000  0.000  0.000  0.000  0.000  0.000  0.000  0.000  0.000  0.254
  2  0.000  0.247  0.000  0.495  0.000  0.000  0.000  0.000  0.000  0.000  0.000  0.000  0.000  0.000  0.000  0.000  0.742
tot  0.000  0.332  0.000  0.664  0.000  0.000  0.000  0.000  0.000  0.000  0.000  0.000  0.000  0.000  0.000  0.000  0.996


band   7 # energy  -86.72776507 # occ.  2.00000000

ion      s     py     pz     px    dxy    dyz    dz2    dxz    dx2    f-3    f-2    f-1     f0     f1     f2     f3    tot
  1  0.000  0.332  0.000  0.166  0.000  0.000  0.000  0.000  0.000  0.000  0.000  0.000  0.000  0.000  0.000  0.000  0.498
  2  0.000  0.332  0.000  0.166  0.000  0.000  0.000  0.000  0.000  0.000  0.000  0.000  0.000  0.000  0.000  0.000  0.498
tot  0.000  0.664  0.000  0.332  0.000  0.000  0.000  0.000  0.000  0.000  0.000  0.000  0.000  0.000  0.000  0.000  0.996


band   8 # energy  -86.72776197 # occ.  2.00000000

ion      s     py     pz     px    dxy    dyz    dz2    dxz    dx2    f-3    f-2    f-1     f0     f1     f2     f3    tot
  1  0.000  0.000  0.498  0.000  0.000  0.000  0.000  0.000  0.000  0.000  0.000  0.000  0.000  0.000  0.000  0.000  0.498
  2  0.000  0.000  0.498  0.000  0.000  0.000  0.000  0.000  0.000  0.000  0.000  0.000  0.000  0.000  0.000  0.000  0.498
tot  0.000  0.000  0.996  0.000  0.000  0.000  0.000  0.000  0.000  0.000  0.000  0.000  0.000  0.000  0.000  0.000  0.996


band   9 # energy   -4.91356571 # occ.  2.00000000

ion      s     py     pz     px    dxy    dyz    dz2    dxz    dx2    f-3    f-2    f-1     f0     f1     f2     f3    tot
  1  0.111  0.007  0.000  0.014  0.001  0.000  0.001  0.000  0.000  0.000  0.000  0.000  0.000  0.000  0.000  0.000  0.134
  2  0.111  0.007  0.000  0.014  0.001  0.000  0.001  0.000  0.000  0.000  0.000  0.000  0.000  0.000  0.000  0.000  0.134
tot  0.222  0.014  0.000  0.029  0.002  0.000  0.001  0.000  0.000  0.000  0.000  0.000  0.000  0.000  0.000  0.000  0.268


band  10 # energy   -4.91351641 # occ.  2.00000000

ion      s     py     pz     px    dxy    dyz    dz2    dxz    dx2    f-3    f-2    f-1     f0     f1     f2     f3    tot
  1  0.111  0.007  0.000  0.014  0.000  0.000  0.002  0.000  0.000  0.000  0.000  0.000  0.000  0.000  0.000  0.000  0.134
  2  0.111  0.007  0.000  0.014  0.000  0.000  0.002  0.000  0.000  0.000  0.000  0.000  0.000  0.000  0.000  0.000  0.134
tot  0.222  0.014  0.000  0.029  0.000  0.000  0.003  0.000  0.000  0.000  0.000  0.000  0.000  0.000  0.000  0.000  0.268


band  11 # energy    0.01106590 # occ.  2.00000000

ion      s     py     pz     px    dxy    dyz    dz2    dxz    dx2    f-3    f-2    f-1     f0     f1     f2     f3    tot
  1  0.000  0.067  0.000  0.034  0.000  0.000  0.000  0.000  0.001  0.000  0.000  0.000  0.000  0.000  0.000  0.000  0.102
  2  0.000  0.067  0.000  0.034  0.000  0.000  0.000  0.000  0.001  0.000  0.000  0.000  0.000  0.000  0.000  0.000  0.102
tot  0.000  0.134  0.000  0.067  0.000  0.000  0.000  0.000  0.002  0.000  0.000  0.000  0.000  0.000  0.000  0.000  0.204


band  12 # energy    0.01111985 # occ.  2.00000000

ion      s     py     pz     px    dxy    dyz    dz2    dxz    dx2    f-3    f-2    f-1     f0     f1     f2     f3    tot
  1  0.000  0.000  0.101  0.000  0.000  0.000  0.000  0.001  0.000  0.000  0.000  0.000  0.000  0.000  0.000  0.000  0.102
  2  0.000  0.000  0.101  0.000  0.000  0.000  0.000  0.001  0.000  0.000  0.000  0.000  0.000  0.000  0.000  0.000  0.102
tot  0.000  0.000  0.201  0.000  0.000  0.001  0.000  0.002  0.000  0.000  0.000  0.000  0.000  0.000  0.000  0.000  0.204


band  13 # energy    3.51237609 # occ.  0.00000000

ion      s     py     pz     px    dxy    dyz    dz2    dxz    dx2    f-3    f-2    f-1     f0     f1     f2     f3    tot
  1  0.034  0.006  0.000  0.013  0.015  0.000  0.002  0.000  0.002  0.000  0.000  0.000  0.000  0.000  0.000  0.000  0.072
  2  0.034  0.006  0.000  0.013  0.015  0.000  0.002  0.000  0.002  0.000  0.000  0.000  0.000  0.000  0.000  0.000  0.072
tot  0.068  0.013  0.000  0.026  0.031  0.000  0.004  0.000  0.004  0.000  0.000  0.000  0.000  0.000  0.000  0.000  0.145


band  14 # energy    3.51244206 # occ.  0.00000000

ion      s     py     pz     px    dxy    dyz    dz2    dxz    dx2    f-3    f-2    f-1     f0     f1     f2     f3    tot
  1  0.034  0.006  0.000  0.013  0.001  0.000  0.018  0.000  0.000  0.000  0.000  0.000  0.000  0.000  0.000  0.000  0.072
  2  0.034  0.006  0.000  0.013  0.001  0.000  0.018  0.000  0.000  0.000  0.000  0.000  0.000  0.000  0.000  0.000  0.072
tot  0.068  0.013  0.000  0.026  0.002  0.000  0.037  0.000  0.000  0.000  0.000  0.000  0.000  0.000  0.000  0.000  0.145


band  15 # energy   12.73385490 # occ.  0.00000000

ion      s     py     pz     px    dxy    dyz    dz2    dxz    dx2    f-3    f-2    f-1     f0     f1     f2     f3    tot
  1  0.000  0.097  0.000  0.049  0.002  0.000  0.000  0.000  0.016  0.000  0.000  0.000  0.000  0.000  0.000  0.001  0.165
  2  0.000  0.097  0.000  0.049  0.002  0.000  0.000  0.000  0.016  0.000  0.000  0.000  0.000  0.000  0.000  0.001  0.165
tot  0.000  0.195  0.000  0.097  0.004  0.000  0.000  0.000  0.032  0.000  0.000  0.000  0.000  0.000  0.000  0.001  0.330


band  16 # energy   12.73399291 # occ.  0.00000000

ion      s     py     pz     px    dxy    dyz    dz2    dxz    dx2    f-3    f-2    f-1     f0     f1     f2     f3    tot
  1  0.000  0.000  0.146  0.000  0.000  0.006  0.000  0.012  0.000  0.000  0.000  0.000  0.001  0.000  0.000  0.000  0.165
  2  0.000  0.000  0.146  0.000  0.000  0.006  0.000  0.012  0.000  0.000  0.000  0.000  0.001  0.000  0.000  0.000  0.165
tot  0.000  0.000  0.292  0.000  0.000  0.012  0.000  0.024  0.000  0.000  0.000  0.000  0.002  0.000  0.000  0.000  0.330


