<?xml version="1.0" encoding="ISO-8859-1"?>
<modeling>
 <generator>
  <i name="program" type="string">vasp </i>
  <i name="version" type="string">5.3.5  </i>
  <i name="subversion" type="string">31Mar14 (build Sep 28 2016 15:36:23) complex                          parallel </i>
  <i name="platform" type="string">EXABYTE </i>
  <i name="date" type="string">2017 08 22 </i>
  <i name="time" type="string">01:58:26 </i>
 </generator>
 <incar>
  <i type="int" name="ISTART">     1</i>
  <i type="string" name="PREC">normal</i>
  <i type="int" name="ICHARG">    11</i>
  <i type="int" name="ISMEAR">     0</i>
  <i name="SIGMA">      0.05000000</i>
 </incar>
 <kpoints>
  <varray name="kpointlist" >
   <v>       0.00000000       0.00000000       0.00000000 </v>
   <v>       0.00000000       0.00000000       0.50000000 </v>
   <v>       0.00000000       0.50000000       0.50000000 </v>
  </varray>
  <varray name="weights" >
   <v>       0.33333333 </v>
   <v>       0.33333333 </v>
   <v>       0.33333333 </v>
  </varray>
 </kpoints>
 <parameters>
  <separator name="general" >
   <i type="string" name="SYSTEM">unknown system</i>
   <i type="logical" name="LCOMPAT"> F  </i>
  </separator>
  <separator name="electronic" >
   <i type="string" name="PREC">normal</i>
   <i name="ENMAX">    547.57800000</i>
   <i name="ENAUG">   1153.82700000</i>
   <i name="EDIFF">      0.00010000</i>
   <i type="int" name="IALGO">    38</i>
   <i type="int" name="IWAVPR">    10</i>
   <i type="int" name="NBANDS">    16</i>
   <i name="NELECT">     24.00000000</i>
   <i type="int" name="TURBO">     0</i>
   <i type="int" name="IRESTART">     0</i>
   <i type="int" name="NREBOOT">     0</i>
   <i type="int" name="NMIN">     0</i>
   <i name="EREF">      0.00000000</i>
   <separator name="electronic smearing" >
    <i type="int" name="ISMEAR">     0</i>
    <i name="SIGMA">      0.05000000</i>
    <i name="KSPACING">      0.50000000</i>
    <i type="logical" name="KGAMMA"> T  </i>
   </separator>
   <separator name="electronic projectors" >
    <i type="logical" name="LREAL"> F  </i>
    <v name="ROPT">      0.00000000</v>
    <i type="int" name="LMAXPAW">  -100</i>
    <i type="int" name="LMAXMIX">     2</i>
    <i type="logical" name="NLSPLINE"> F  </i>
   </separator>
   <separator name="electronic startup" >
    <i type="int" name="ISTART">     1</i>
    <i type="int" name="ICHARG">    11</i>
    <i type="int" name="INIWAV">     1</i>
   </separator>
   <separator name="electronic spin" >
    <i type="int" name="ISPIN">     1</i>
    <i type="logical" name="LNONCOLLINEAR"> F  </i>
    <v name="MAGMOM">      1.00000000      1.00000000</v>
    <i name="NUPDOWN">     -1.00000000</i>
    <i type="logical" name="LSORBIT"> F  </i>
    <v name="SAXIS">      0.00000000      0.00000000      1.00000000</v>
    <i type="logical" name="LSPIRAL"> F  </i>
    <v name="QSPIRAL">      0.00000000      0.00000000      0.00000000</v>
    <i type="logical" name="LZEROZ"> F  </i>
   </separator>
   <separator name="electronic exchange-correlation" >
    <i type="logical" name="LASPH"> F  </i>
    <i type="logical" name="LMETAGGA"> F  </i>
   </separator>
   <separator name="electronic convergence" >
    <i type="int" name="NELM">    60</i>
    <i type="int" name="NELMDL">     0</i>
    <i type="int" name="NELMIN">     2</i>
    <i name="ENINI">    547.57800000</i>
    <separator name="electronic convergence detail" >
     <i type="logical" name="LDIAG"> T  </i>
     <i type="logical" name="LSUBROT"> F  </i>
     <i name="WEIMIN">      0.00000000</i>
     <i name="EBREAK">      0.00000156</i>
     <i name="DEPER">      0.30000000</i>
     <i type="int" name="NRMM">     4</i>
     <i name="TIME">      0.40000000</i>
    </separator>
   </separator>
   <separator name="electronic mixer" >
    <i name="AMIX">      0.40000000</i>
    <i name="BMIX">      1.00000000</i>
    <i name="AMIN">      0.10000000</i>
    <i name="AMIX_MAG">      1.60000000</i>
    <i name="BMIX_MAG">      1.00000000</i>
    <separator name="electronic mixer details" >
     <i type="int" name="IMIX">     4</i>
     <i type="int" name="MAXMIX">   -45</i>
     <i name="WC">    100.00000000</i>
     <i type="int" name="INIMIX">     1</i>
     <i type="int" name="MIXPRE">     1</i>
     <i type="int" name="MREMOVE">     5</i>
    </separator>
   </separator>
   <separator name="electronic dipolcorrection" >
    <i type="logical" name="LDIPOL"> F  </i>
    <i type="logical" name="LMONO"> F  </i>
    <i type="int" name="IDIPOL">     0</i>
    <i name="EPSILON">      1.00000000</i>
    <v name="DIPOL">   -100.00000000   -100.00000000   -100.00000000</v>
    <i name="EFIELD">      0.00000000</i>
   </separator>
  </separator>
  <separator name="grids" >
   <i type="int" name="NGX">    24</i>
   <i type="int" name="NGY">    24</i>
   <i type="int" name="NGZ">    24</i>
   <i type="int" name="NGXF">    48</i>
   <i type="int" name="NGYF">    48</i>
   <i type="int" name="NGZF">    48</i>
   <i type="logical" name="ADDGRID"> F  </i>
  </separator>
  <separator name="ionic" >
   <i type="int" name="NSW">     0</i>
   <i type="int" name="IBRION">    -1</i>
   <i type="int" name="ISIF">     2</i>
   <i name="PSTRESS">      0.00000000</i>
   <i name="EDIFFG">      0.00100000</i>
   <i type="int" name="NFREE">     0</i>
   <i name="POTIM">      0.50000000</i>
   <i name="SMASS">     -3.00000000</i>
   <i name="SCALEE">      1.00000000</i>
  </separator>
  <separator name="ionic md" >
   <i name="TEBEG">      0.00010000</i>
   <i name="TEEND">      0.00010000</i>
   <i type="int" name="NBLOCK">     1</i>
   <i type="int" name="KBLOCK">     1</i>
   <i type="int" name="NPACO">   256</i>
   <i name="APACO">     16.00000000</i>
  </separator>
  <separator name="symmetry" >
   <i type="int" name="ISYM">     2</i>
   <i name="SYMPREC">      0.00001000</i>
  </separator>
  <separator name="dos" >
   <i type="logical" name="LORBIT"> F  </i>
   <v name="RWIGS">     -1.00000000</v>
   <i type="int" name="NEDOS">   301</i>
   <i name="EMIN">     10.00000000</i>
   <i name="EMAX">    -10.00000000</i>
   <i name="EFERMI">      0.00000000</i>
  </separator>
  <separator name="writing" >
   <i type="int" name="NWRITE">     2</i>
   <i type="logical" name="LWAVE"> T  </i>
   <i type="logical" name="LCHARG"> T  </i>
   <i type="logical" name="LPARD"> F  </i>
   <i type="logical" name="LVTOT"> F  </i>
   <i type="logical" name="LVHAR"> F  </i>
   <i type="logical" name="LELF"> F  </i>
   <i type="logical" name="LOPTICS"> F  </i>
   <v name="STM">      0.00000000      0.00000000      0.00000000      0.00000000      0.00000000      0.00000000      0.00000000</v>
  </separator>
  <separator name="performance" >
   <i type="int" name="NPAR">     1</i>
   <i type="int" name="NSIM">     4</i>
   <i type="int" name="NBLK">    -1</i>
   <i type="logical" name="LPLANE"> T  </i>
   <i type="logical" name="LSCALAPACK"> T  </i>
   <i type="logical" name="LSCAAWARE"> F  </i>
   <i type="logical" name="LSCALU"> F  </i>
   <i type="logical" name="LASYNC"> F  </i>
   <i type="logical" name="LORBITALREAL"> F  </i>
  </separator>
  <separator name="miscellaneous" >
   <i type="int" name="IDIOT">     3</i>
   <i type="logical" name="LMUSIC"> F  </i>
   <v name="POMASS">     28.08500000</v>
   <v name="DARWINR">      0.00000000</v>
   <v name="DARWINV">      1.00000000</v>
   <i type="logical" name="LCORR"> T  </i>
  </separator>
  <i type="logical" name="GGA_COMPAT"> T  </i>
  <i type="logical" name="LBERRY"> F  </i>
  <i type="int" name="ICORELEVEL">     0</i>
  <i type="logical" name="LDAU"> F  </i>
  <i type="int" name="I_CONSTRAINED_M">     0</i>
  <separator name="electronic exchange-correlation" >
   <i type="string" name="GGA">--</i>
   <i type="int" name="VOSKOWN">     0</i>
   <i type="logical" name="LHFCALC"> F  </i>
   <i type="string" name="PRECFOCK"></i>
   <i type="logical" name="LSYMGRAD"> F  </i>
   <i type="logical" name="LHFONE"> F  </i>
   <i type="logical" name="LRHFCALC"> F  </i>
   <i type="logical" name="LTHOMAS"> F  </i>
   <i type="logical" name="LMODELHF"> F  </i>
   <i name="ENCUT4O">     -1.00000000</i>
   <i type="int" name="EXXOEP">     0</i>
   <i type="int" name="FOURORBIT">     0</i>
   <i name="AEXX">      0.00000000</i>
   <i name="HFALPHA">      0.00000000</i>
   <i name="MCALPHA">      0.00000000</i>
   <i name="ALDAX">      1.00000000</i>
   <i name="AGGAX">      1.00000000</i>
   <i name="ALDAC">      1.00000000</i>
   <i name="AGGAC">      1.00000000</i>
   <i type="int" name="NKREDX">     1</i>
   <i type="int" name="NKREDY">     1</i>
   <i type="int" name="NKREDZ">     1</i>
   <i type="logical" name="SHIFTRED"> F  </i>
   <i type="logical" name="ODDONLY"> F  </i>
   <i type="logical" name="EVENONLY"> F  </i>
   <i type="int" name="LMAXFOCK">     0</i>
   <i type="int" name="NMAXFOCKAE">     0</i>
   <i type="logical" name="LFOCKAEDFT"> F  </i>
   <i name="HFSCREEN">      0.00000000</i>
   <i name="HFSCREENC">      0.00000000</i>
   <i type="int" name="NBANDSGWLOW">     0</i>
  </separator>
  <separator name="vdW DFT" >
   <i type="logical" name="LUSE_VDW"> F  </i>
   <i name="Zab_VDW">     -0.84910000</i>
   <i name="PARAM1">      0.12340000</i>
   <i name="PARAM2">      1.00000000</i>
   <i name="PARAM3">      0.00000000</i>
  </separator>
  <separator name="model GW" >
   <i type="int" name="MODEL_GW">     0</i>
   <i name="MODEL_EPS0">     12.26672712</i>
   <i name="MODEL_ALPHA">      1.00000000</i>
  </separator>
  <separator name="linear response parameters" >
   <i type="logical" name="LEPSILON"> F  </i>
   <i type="logical" name="LRPA"> F  </i>
   <i type="logical" name="LNABLA"> F  </i>
   <i type="logical" name="LVEL"> F  </i>
   <i type="int" name="KINTER">     0</i>
   <i name="CSHIFT">      0.10000000</i>
   <i name="OMEGAMAX">     -1.00000000</i>
   <i name="DEG_THRESHOLD">      0.00200000</i>
  </separator>
  <separator name="orbital magnetization" >
   <i type="logical" name="NUCIND"> F  </i>
   <v name="MAGPOS">      0.00000000      0.00000000      0.00000000</v>
   <i type="logical" name="LNICSALL"> T  </i>
   <i type="logical" name="ORBITALMAG"> F  </i>
   <i type="logical" name="LMAGBLOCH"> F  </i>
   <i type="logical" name="LCHIMAG"> F  </i>
   <i type="logical" name="LGAUGE"> T  </i>
   <i type="int" name="MAGATOM">     0</i>
   <v name="MAGDIPOL">      0.00000000      0.00000000      0.00000000</v>
   <v name="AVECCONST">      0.00000000      0.00000000      0.00000000</v>
  </separator>
  <separator name="response functions" >
   <i type="logical" name="LADDER"> F  </i>
   <i type="logical" name="LFXC"> F  </i>
   <i type="logical" name="LHARTREE"> T  </i>
   <i type="int" name="IBSE">     0</i>
   <i type="logical" name="LTCTE"> F  </i>
   <i type="logical" name="LTETE"> F  </i>
   <i type="logical" name="LTRIPLET"> F  </i>
   <i type="logical" name="LFXCEPS"> F  </i>
   <i type="logical" name="LFXHEG"> F  </i>
   <i type="logical" name="L2ORDER"> F  </i>
   <i type="logical" name="LUSEW"> F  </i>
   <i name="ENCUTGW">     -2.00000000</i>
   <i name="ENCUTGWSOFT">     -2.00000000</i>
   <i name="ENCUTLF">     -1.00000000</i>
   <i type="int" name="LMAXMP2">    -1</i>
   <i name="SCISSOR">      0.00000000</i>
   <i type="int" name="NOMEGA">     0</i>
   <i type="int" name="NOMEGAR">     0</i>
   <i type="int" name="NBANDSGW">    -1</i>
   <i type="int" name="NBANDSO">    -1</i>
   <i type="int" name="NBANDSV">    -1</i>
   <i type="int" name="NELM">     1</i>
   <i type="int" name="DIM">     3</i>
   <i type="int" name="ANTIRES">     0</i>
   <i name="OMEGAMAX">    -30.00000000</i>
   <i name="OMEGAMIN">    -30.00000000</i>
   <i name="OMEGATL">   -200.00000000</i>
   <i type="int" name="OMEGAGRID">     0</i>
   <i name="CSHIFT">     -0.10000000</i>
   <i type="logical" name="SELFENERGY"> F  </i>
   <i type="logical" name="LSPECTRAL"> F  </i>
   <i type="logical" name="ODDONLYGW"> F  </i>
   <i type="logical" name="EVENONLYGW"> F  </i>
   <i type="int" name="NKREDLFX">     1</i>
   <i type="int" name="NKREDLFY">     1</i>
   <i type="int" name="NKREDLFZ">     1</i>
   <i type="int" name="MAXMEM">  1800</i>
   <i type="int" name="TELESCOPE">     0</i>
   <i type="int" name="TAUPAR">     1</i>
  </separator>
  <separator name="External order field" >
   <i name="OFIELD_KAPPA">      0.00000000</i>
   <v name="OFIELD_K">      0.00000000      0.00000000      0.00000000</v>
   <i name="OFIELD_Q6_NEAR">      0.00000000</i>
   <i name="OFIELD_Q6_FAR">      0.00000000</i>
   <i name="OFIELD_A">      0.00000000</i>
  </separator>
 </parameters>
 <atominfo>
  <atoms>       2 </atoms>
  <types>       1 </types>
  <array name="atoms" >
   <dimension dim="1">ion</dimension>
   <field type="string">element</field>
   <field type="int">atomtype</field>
   <set>
    <rc><c>Si</c><c>   1</c></rc>
    <rc><c>Si</c><c>   1</c></rc>
   </set>
  </array>
  <array name="atomtypes" >
   <dimension dim="1">type</dimension>
   <field type="int">atomspertype</field>
   <field type="string">element</field>
   <field>mass</field>
   <field>valence</field>
   <field type="string">pseudopotential</field>
   <set>
    <rc><c>   2</c><c>Si</c><c>     28.08500000</c><c>     12.00000000</c><c>  PAW Si_sv_GW 29Sep2009                </c></rc>
   </set>
  </array>
 </atominfo>
 <structure name="initialpos" >
  <crystal>
   <varray name="basis" >
    <v>       3.34892000       0.00000000       1.93350000 </v>
    <v>       1.11630700       3.15739200       1.93350000 </v>
    <v>       0.00000000       0.00000000       3.86700000 </v>
   </varray>
   <i name="volume">     40.88909039 </i>
   <varray name="rec_basis" >
    <v>       0.29860373      -0.10557239       0.00000000 </v>
    <v>       0.00000000       0.31671709       0.00000000 </v>
    <v>      -0.14930186      -0.10557235       0.25859840 </v>
   </varray>
  </crystal>
  <varray name="positions" >
   <v>       0.00000000       0.00000000       0.00000000 </v>
   <v>       0.25000000       0.25000000       0.25000000 </v>
  </varray>
 </structure>
 <calculation>
  <scstep>
   <time name="dav">    0.21    0.21</time>
   <time name="total">    0.34    0.34</time>
   <energy>
    <i name="alphaZ">    128.35390443 </i>
    <i name="ewald">  -2042.49083880 </i>
    <i name="hartreedc">  -1483.54554722 </i>
    <i name="XCdc">    150.01781539 </i>
    <i name="pawpsdc">   3174.63986600 </i>
    <i name="pawaedc">  -3914.56631517 </i>
    <i name="eentropy">     -0.00000000 </i>
    <i name="bandstr">  -1571.30880202 </i>
    <i name="atom">   5557.72926676 </i>
    <i name="e_fr_energy">     -1.17065063 </i>
    <i name="e_wo_entrp">     -1.17065063 </i>
    <i name="e_0_energy">     -1.17065063 </i>
   </energy>
  </scstep>
  <scstep>
   <time name="dav">    0.17    0.17</time>
   <time name="total">    0.17    0.17</time>
   <energy>
    <i name="e_fr_energy">     -4.92142665 </i>
    <i name="e_wo_entrp">     -4.92142665 </i>
    <i name="e_0_energy">     -4.92142665 </i>
   </energy>
  </scstep>
  <scstep>
   <time name="dav">    0.17    0.17</time>
   <time name="total">    0.17    0.17</time>
   <energy>
    <i name="e_fr_energy">     -5.07477600 </i>
    <i name="e_wo_entrp">     -5.07477600 </i>
    <i name="e_0_energy">     -5.07477600 </i>
   </energy>
  </scstep>
  <scstep>
   <time name="dav">    0.19    0.19</time>
   <time name="total">    0.19    0.19</time>
   <energy>
    <i name="e_fr_energy">     -5.08898053 </i>
    <i name="e_wo_entrp">     -5.08898053 </i>
    <i name="e_0_energy">     -5.08898053 </i>
   </energy>
  </scstep>
  <scstep>
   <time name="dav">    0.17    0.17</time>
   <time name="total">    0.17    0.17</time>
   <energy>
    <i name="e_fr_energy">     -5.09040770 </i>
    <i name="e_wo_entrp">     -5.09040770 </i>
    <i name="e_0_energy">     -5.09040770 </i>
   </energy>
  </scstep>
  <scstep>
   <time name="dav">    0.15    0.15</time>
   <time name="total">    0.15    0.15</time>
   <energy>
    <i name="alphaZ">    128.35390443 </i>
    <i name="ewald">  -2042.49083880 </i>
    <i name="hartreedc">  -1483.54554722 </i>
    <i name="XCdc">    150.01781539 </i>
    <i name="pawpsdc">   3174.63986600 </i>
    <i name="pawaedc">  -3914.56631517 </i>
    <i name="eentropy">     -0.00000000 </i>
    <i name="bandstr">  -1575.22856844 </i>
    <i name="atom">   5557.72926676 </i>
    <i name="e_fr_energy">     -5.09041706 </i>
    <i name="e_wo_entrp">     -5.09041706 </i>
    <i name="e_0_energy">     -5.09041706 </i>
   </energy>
  </scstep>
  <structure>
   <crystal>
    <varray name="basis" >
     <v>       3.34892000       0.00000000       1.93350000 </v>
     <v>       1.11630700       3.15739200       1.93350000 </v>
     <v>       0.00000000       0.00000000       3.86700000 </v>
    </varray>
    <i name="volume">     40.88909039 </i>
    <varray name="rec_basis" >
     <v>       0.29860373      -0.10557239       0.00000000 </v>
     <v>       0.00000000       0.31671709       0.00000000 </v>
     <v>      -0.14930186      -0.10557235       0.25859840 </v>
    </varray>
   </crystal>
   <varray name="positions" >
    <v>       0.00000000       0.00000000       0.00000000 </v>
    <v>       0.25000000       0.25000000       0.25000000 </v>
   </varray>
  </structure>
  <varray name="forces" >
   <v>      -0.00000000      -0.00000000      -0.00000000 </v>
   <v>       0.00000000       0.00000000       0.00000000 </v>
  </varray>
  <varray name="stress" >
   <v>      88.04735196       0.00000930       0.00000000 </v>
   <v>       0.00000930      88.04734886       0.00000000 </v>
   <v>       0.00000000      -0.00000000      88.04736439 </v>
  </varray>
  <energy>
   <i name="e_fr_energy">     -5.09041706 </i>
   <i name="e_wo_entrp">     -5.09041706 </i>
   <i name="e_0_energy">     -0.00000000 </i>
  </energy>
  <time name="totalsc">    1.74    1.74</time>
  <eigenvalues>
   <array>
    <dimension dim="1">band</dimension>
    <dimension dim="2">kpoint</dimension>
    <dimension dim="3">spin</dimension>
    <field>eigene</field>
    <field>occ</field>
    <set>
     <set comment="spin 1">
      <set comment="kpoint 1">
       <r> -130.6801    1.0000 </r>
       <r> -130.6499    1.0000 </r>
       <r>  -86.7526    1.0000 </r>
       <r>  -86.7526    1.0000 </r>
       <r>  -86.7526    1.0000 </r>
       <r>  -86.7398    1.0000 </r>
       <r>  -86.7398    1.0000 </r>
       <r>  -86.7398    1.0000 </r>
       <r>   -9.0024    1.0000 </r>
       <r>    2.8786    1.0000 </r>
       <r>    2.8786    1.0000 </r>
       <r>    2.8787    1.0000 </r>
       <r>    5.2953    0.0000 </r>
       <r>    5.2953    0.0000 </r>
       <r>    5.2954    0.0000 </r>
       <r>    6.0026    0.0000 </r>
      </set>
      <set comment="kpoint 2">
       <r> -130.6524    1.0000 </r>
       <r> -130.6319    1.0000 </r>
       <r>  -86.7498    1.0000 </r>
       <r>  -86.7498    1.0000 </r>
       <r>  -86.7488    1.0000 </r>
       <r>  -86.7369    1.0000 </r>
       <r>  -86.7356    1.0000 </r>
       <r>  -86.7356    1.0000 </r>
       <r>   -6.7056    1.0000 </r>
       <r>   -4.0662    1.0000 </r>
       <r>    1.6651    1.0000 </r>
       <r>    1.6652    1.0000 </r>
       <r>    4.2852    0.0000 </r>
       <r>    6.0805    0.0000 </r>
       <r>    6.0806    0.0000 </r>
       <r>   10.4904    0.0000 </r>
      </set>
      <set comment="kpoint 3">
       <r> -130.6239    1.0000 </r>
       <r> -130.6239    1.0000 </r>
       <r>  -86.7490    1.0000 </r>
       <r>  -86.7490    1.0000 </r>
       <r>  -86.7391    1.0000 </r>
       <r>  -86.7391    1.0000 </r>
       <r>  -86.7298    1.0000 </r>
       <r>  -86.7297    1.0000 </r>
       <r>   -4.9133    1.0000 </r>
       <r>   -4.9132    1.0000 </r>
       <r>    0.0118    1.0000 </r>
       <r>    0.0118    1.0000 </r>
       <r>    3.5119    0.0000 </r>
       <r>    3.5119    0.0000 </r>
       <r>   12.7279    0.0000 </r>
       <r>   12.7281    0.0000 </r>
      </set>
     </set>
    </set>
   </array>
  </eigenvalues>
  <separator name="orbital magnetization" >
   <v name="MAGDIPOLOUT">      0.00000000      0.00000000      0.00000000</v>
  </separator>
  <dos>
   <i name="efermi">      3.20342478 </i>
   <total>
    <array>
     <dimension dim="1">gridpoints</dimension>
     <dimension dim="2">spin</dimension>
     <field>energy</field>
     <field>total</field>
     <field>integrated</field>
     <set>
      <set comment="spin 1">
       <r>  -137.8505     0.0000     0.0000 </r>
       <r>  -137.3246     0.0000     0.0000 </r>
       <r>  -136.7988     0.0000     0.0000 </r>
       <r>  -136.2730     0.0000     0.0000 </r>
       <r>  -135.7471     0.0000     0.0000 </r>
       <r>  -135.2213     0.0000     0.0000 </r>
       <r>  -134.6955     0.0000     0.0000 </r>
       <r>  -134.1697     0.0000     0.0000 </r>
       <r>  -133.6438     0.0000     0.0000 </r>
       <r>  -133.1180     0.0000     0.0000 </r>
       <r>  -132.5922     0.0000     0.0000 </r>
       <r>  -132.0663     0.0000     0.0000 </r>
       <r>  -131.5405     0.0000     0.0000 </r>
       <r>  -131.0147     0.0000     0.0000 </r>
       <r>  -130.4888     7.6068     3.9999 </r>
       <r>  -129.9630     0.0000     4.0000 </r>
       <r>  -129.4372     0.0000     4.0000 </r>
       <r>  -128.9114     0.0000     4.0000 </r>
       <r>  -128.3855     0.0000     4.0000 </r>
       <r>  -127.8597     0.0000     4.0000 </r>
       <r>  -127.3339     0.0000     4.0000 </r>
       <r>  -126.8080     0.0000     4.0000 </r>
       <r>  -126.2822     0.0000     4.0000 </r>
       <r>  -125.7564     0.0000     4.0000 </r>
       <r>  -125.2305     0.0000     4.0000 </r>
       <r>  -124.7047     0.0000     4.0000 </r>
       <r>  -124.1789     0.0000     4.0000 </r>
       <r>  -123.6531     0.0000     4.0000 </r>
       <r>  -123.1272     0.0000     4.0000 </r>
       <r>  -122.6014     0.0000     4.0000 </r>
       <r>  -122.0756     0.0000     4.0000 </r>
       <r>  -121.5497     0.0000     4.0000 </r>
       <r>  -121.0239     0.0000     4.0000 </r>
       <r>  -120.4981     0.0000     4.0000 </r>
       <r>  -119.9722     0.0000     4.0000 </r>
       <r>  -119.4464     0.0000     4.0000 </r>
       <r>  -118.9206     0.0000     4.0000 </r>
       <r>  -118.3948     0.0000     4.0000 </r>
       <r>  -117.8689     0.0000     4.0000 </r>
       <r>  -117.3431     0.0000     4.0000 </r>
       <r>  -116.8173     0.0000     4.0000 </r>
       <r>  -116.2914     0.0000     4.0000 </r>
       <r>  -115.7656     0.0000     4.0000 </r>
       <r>  -115.2398     0.0000     4.0000 </r>
       <r>  -114.7139     0.0000     4.0000 </r>
       <r>  -114.1881     0.0000     4.0000 </r>
       <r>  -113.6623     0.0000     4.0000 </r>
       <r>  -113.1365     0.0000     4.0000 </r>
       <r>  -112.6106     0.0000     4.0000 </r>
       <r>  -112.0848     0.0000     4.0000 </r>
       <r>  -111.5590     0.0000     4.0000 </r>
       <r>  -111.0331     0.0000     4.0000 </r>
       <r>  -110.5073     0.0000     4.0000 </r>
       <r>  -109.9815     0.0000     4.0000 </r>
       <r>  -109.4556     0.0000     4.0000 </r>
       <r>  -108.9298     0.0000     4.0000 </r>
       <r>  -108.4040     0.0000     4.0000 </r>
       <r>  -107.8782     0.0000     4.0000 </r>
       <r>  -107.3523     0.0000     4.0000 </r>
       <r>  -106.8265     0.0000     4.0000 </r>
       <r>  -106.3007     0.0000     4.0000 </r>
       <r>  -105.7748     0.0000     4.0000 </r>
       <r>  -105.2490     0.0000     4.0000 </r>
       <r>  -104.7232     0.0000     4.0000 </r>
       <r>  -104.1973     0.0000     4.0000 </r>
       <r>  -103.6715     0.0000     4.0000 </r>
       <r>  -103.1457     0.0000     4.0000 </r>
       <r>  -102.6199     0.0000     4.0000 </r>
       <r>  -102.0940     0.0000     4.0000 </r>
       <r>  -101.5682     0.0000     4.0000 </r>
       <r>  -101.0424     0.0000     4.0000 </r>
       <r>  -100.5165     0.0000     4.0000 </r>
       <r>   -99.9907     0.0000     4.0000 </r>
       <r>   -99.4649     0.0000     4.0000 </r>
       <r>   -98.9390     0.0000     4.0000 </r>
       <r>   -98.4132     0.0000     4.0000 </r>
       <r>   -97.8874     0.0000     4.0000 </r>
       <r>   -97.3616     0.0000     4.0000 </r>
       <r>   -96.8357     0.0000     4.0000 </r>
       <r>   -96.3099     0.0000     4.0000 </r>
       <r>   -95.7841     0.0000     4.0000 </r>
       <r>   -95.2582     0.0000     4.0000 </r>
       <r>   -94.7324     0.0000     4.0000 </r>
       <r>   -94.2066     0.0000     4.0000 </r>
       <r>   -93.6807     0.0000     4.0000 </r>
       <r>   -93.1549     0.0000     4.0000 </r>
       <r>   -92.6291     0.0000     4.0000 </r>
       <r>   -92.1033     0.0000     4.0000 </r>
       <r>   -91.5774     0.0000     4.0000 </r>
       <r>   -91.0516     0.0000     4.0000 </r>
       <r>   -90.5258     0.0000     4.0000 </r>
       <r>   -89.9999     0.0000     4.0000 </r>
       <r>   -89.4741     0.0000     4.0000 </r>
       <r>   -88.9483     0.0000     4.0000 </r>
       <r>   -88.4224     0.0000     4.0000 </r>
       <r>   -87.8966     0.0000     4.0000 </r>
       <r>   -87.3708     0.0000     4.0000 </r>
       <r>   -86.8450     0.0532     4.0279 </r>
       <r>   -86.3191     0.0000    16.0000 </r>
       <r>   -85.7933     0.0000    16.0000 </r>
       <r>   -85.2675     0.0000    16.0000 </r>
       <r>   -84.7416     0.0000    16.0000 </r>
       <r>   -84.2158     0.0000    16.0000 </r>
       <r>   -83.6900     0.0000    16.0000 </r>
       <r>   -83.1641     0.0000    16.0000 </r>
       <r>   -82.6383     0.0000    16.0000 </r>
       <r>   -82.1125     0.0000    16.0000 </r>
       <r>   -81.5867     0.0000    16.0000 </r>
       <r>   -81.0608     0.0000    16.0000 </r>
       <r>   -80.5350     0.0000    16.0000 </r>
       <r>   -80.0092     0.0000    16.0000 </r>
       <r>   -79.4833     0.0000    16.0000 </r>
       <r>   -78.9575     0.0000    16.0000 </r>
       <r>   -78.4317     0.0000    16.0000 </r>
       <r>   -77.9058     0.0000    16.0000 </r>
       <r>   -77.3800     0.0000    16.0000 </r>
       <r>   -76.8542     0.0000    16.0000 </r>
       <r>   -76.3284     0.0000    16.0000 </r>
       <r>   -75.8025     0.0000    16.0000 </r>
       <r>   -75.2767     0.0000    16.0000 </r>
       <r>   -74.7509     0.0000    16.0000 </r>
       <r>   -74.2250     0.0000    16.0000 </r>
       <r>   -73.6992     0.0000    16.0000 </r>
       <r>   -73.1734     0.0000    16.0000 </r>
       <r>   -72.6475     0.0000    16.0000 </r>
       <r>   -72.1217     0.0000    16.0000 </r>
       <r>   -71.5959     0.0000    16.0000 </r>
       <r>   -71.0701     0.0000    16.0000 </r>
       <r>   -70.5442     0.0000    16.0000 </r>
       <r>   -70.0184     0.0000    16.0000 </r>
       <r>   -69.4926     0.0000    16.0000 </r>
       <r>   -68.9667     0.0000    16.0000 </r>
       <r>   -68.4409     0.0000    16.0000 </r>
       <r>   -67.9151     0.0000    16.0000 </r>
       <r>   -67.3892     0.0000    16.0000 </r>
       <r>   -66.8634     0.0000    16.0000 </r>
       <r>   -66.3376     0.0000    16.0000 </r>
       <r>   -65.8118     0.0000    16.0000 </r>
       <r>   -65.2859     0.0000    16.0000 </r>
       <r>   -64.7601     0.0000    16.0000 </r>
       <r>   -64.2343     0.0000    16.0000 </r>
       <r>   -63.7084     0.0000    16.0000 </r>
       <r>   -63.1826     0.0000    16.0000 </r>
       <r>   -62.6568     0.0000    16.0000 </r>
       <r>   -62.1309     0.0000    16.0000 </r>
       <r>   -61.6051     0.0000    16.0000 </r>
       <r>   -61.0793     0.0000    16.0000 </r>
       <r>   -60.5535     0.0000    16.0000 </r>
       <r>   -60.0276     0.0000    16.0000 </r>
       <r>   -59.5018     0.0000    16.0000 </r>
       <r>   -58.9760     0.0000    16.0000 </r>
       <r>   -58.4501     0.0000    16.0000 </r>
       <r>   -57.9243     0.0000    16.0000 </r>
       <r>   -57.3985     0.0000    16.0000 </r>
       <r>   -56.8726     0.0000    16.0000 </r>
       <r>   -56.3468     0.0000    16.0000 </r>
       <r>   -55.8210     0.0000    16.0000 </r>
       <r>   -55.2952     0.0000    16.0000 </r>
       <r>   -54.7693     0.0000    16.0000 </r>
       <r>   -54.2435     0.0000    16.0000 </r>
       <r>   -53.7177     0.0000    16.0000 </r>
       <r>   -53.1918     0.0000    16.0000 </r>
       <r>   -52.6660     0.0000    16.0000 </r>
       <r>   -52.1402     0.0000    16.0000 </r>
       <r>   -51.6143     0.0000    16.0000 </r>
       <r>   -51.0885     0.0000    16.0000 </r>
       <r>   -50.5627     0.0000    16.0000 </r>
       <r>   -50.0369     0.0000    16.0000 </r>
       <r>   -49.5110     0.0000    16.0000 </r>
       <r>   -48.9852     0.0000    16.0000 </r>
       <r>   -48.4594     0.0000    16.0000 </r>
       <r>   -47.9335     0.0000    16.0000 </r>
       <r>   -47.4077     0.0000    16.0000 </r>
       <r>   -46.8819     0.0000    16.0000 </r>
       <r>   -46.3560     0.0000    16.0000 </r>
       <r>   -45.8302     0.0000    16.0000 </r>
       <r>   -45.3044     0.0000    16.0000 </r>
       <r>   -44.7786     0.0000    16.0000 </r>
       <r>   -44.2527     0.0000    16.0000 </r>
       <r>   -43.7269     0.0000    16.0000 </r>
       <r>   -43.2011     0.0000    16.0000 </r>
       <r>   -42.6752     0.0000    16.0000 </r>
       <r>   -42.1494     0.0000    16.0000 </r>
       <r>   -41.6236     0.0000    16.0000 </r>
       <r>   -41.0977     0.0000    16.0000 </r>
       <r>   -40.5719     0.0000    16.0000 </r>
       <r>   -40.0461     0.0000    16.0000 </r>
       <r>   -39.5203     0.0000    16.0000 </r>
       <r>   -38.9944     0.0000    16.0000 </r>
       <r>   -38.4686     0.0000    16.0000 </r>
       <r>   -37.9428     0.0000    16.0000 </r>
       <r>   -37.4169     0.0000    16.0000 </r>
       <r>   -36.8911     0.0000    16.0000 </r>
       <r>   -36.3653     0.0000    16.0000 </r>
       <r>   -35.8395     0.0000    16.0000 </r>
       <r>   -35.3136     0.0000    16.0000 </r>
       <r>   -34.7878     0.0000    16.0000 </r>
       <r>   -34.2620     0.0000    16.0000 </r>
       <r>   -33.7361     0.0000    16.0000 </r>
       <r>   -33.2103     0.0000    16.0000 </r>
       <r>   -32.6845     0.0000    16.0000 </r>
       <r>   -32.1586     0.0000    16.0000 </r>
       <r>   -31.6328     0.0000    16.0000 </r>
       <r>   -31.1070     0.0000    16.0000 </r>
       <r>   -30.5812     0.0000    16.0000 </r>
       <r>   -30.0553     0.0000    16.0000 </r>
       <r>   -29.5295     0.0000    16.0000 </r>
       <r>   -29.0037     0.0000    16.0000 </r>
       <r>   -28.4778     0.0000    16.0000 </r>
       <r>   -27.9520     0.0000    16.0000 </r>
       <r>   -27.4262     0.0000    16.0000 </r>
       <r>   -26.9003     0.0000    16.0000 </r>
       <r>   -26.3745     0.0000    16.0000 </r>
       <r>   -25.8487     0.0000    16.0000 </r>
       <r>   -25.3229     0.0000    16.0000 </r>
       <r>   -24.7970     0.0000    16.0000 </r>
       <r>   -24.2712     0.0000    16.0000 </r>
       <r>   -23.7454     0.0000    16.0000 </r>
       <r>   -23.2195     0.0000    16.0000 </r>
       <r>   -22.6937     0.0000    16.0000 </r>
       <r>   -22.1679     0.0000    16.0000 </r>
       <r>   -21.6420     0.0000    16.0000 </r>
       <r>   -21.1162     0.0000    16.0000 </r>
       <r>   -20.5904     0.0000    16.0000 </r>
       <r>   -20.0646     0.0000    16.0000 </r>
       <r>   -19.5387     0.0000    16.0000 </r>
       <r>   -19.0129     0.0000    16.0000 </r>
       <r>   -18.4871     0.0000    16.0000 </r>
       <r>   -17.9612     0.0000    16.0000 </r>
       <r>   -17.4354     0.0000    16.0000 </r>
       <r>   -16.9096     0.0000    16.0000 </r>
       <r>   -16.3837     0.0000    16.0000 </r>
       <r>   -15.8579     0.0000    16.0000 </r>
       <r>   -15.3321     0.0000    16.0000 </r>
       <r>   -14.8063     0.0000    16.0000 </r>
       <r>   -14.2804     0.0000    16.0000 </r>
       <r>   -13.7546     0.0000    16.0000 </r>
       <r>   -13.2288     0.0000    16.0000 </r>
       <r>   -12.7029     0.0000    16.0000 </r>
       <r>   -12.1771     0.0000    16.0000 </r>
       <r>   -11.6513     0.0000    16.0000 </r>
       <r>   -11.1254     0.0000    16.0000 </r>
       <r>   -10.5996     0.0000    16.0000 </r>
       <r>   -10.0738     0.0000    16.0000 </r>
       <r>    -9.5480     0.0000    16.0000 </r>
       <r>    -9.0221     0.3654    16.1921 </r>
       <r>    -8.4963     0.0000    16.6667 </r>
       <r>    -7.9705     0.0000    16.6667 </r>
       <r>    -7.4446     0.0000    16.6667 </r>
       <r>    -6.9188     0.0000    16.6667 </r>
       <r>    -6.3930     1.2678    17.3333 </r>
       <r>    -5.8671     0.0000    17.3333 </r>
       <r>    -5.3413     0.0000    17.3333 </r>
       <r>    -4.8155     2.5285    18.6629 </r>
       <r>    -4.2897     0.0000    18.6667 </r>
       <r>    -3.7638     1.2678    19.3333 </r>
       <r>    -3.2380     0.0000    19.3333 </r>
       <r>    -2.7122     0.0000    19.3333 </r>
       <r>    -2.1863     0.0000    19.3333 </r>
       <r>    -1.6605     0.0000    19.3333 </r>
       <r>    -1.1347     0.0000    19.3333 </r>
       <r>    -0.6088     0.0000    19.3333 </r>
       <r>    -0.0830     0.0093    19.3382 </r>
       <r>     0.4428     0.0000    20.6667 </r>
       <r>     0.9686     0.0000    20.6667 </r>
       <r>     1.4945     0.0000    20.6667 </r>
       <r>     2.0203     2.5357    22.0000 </r>
       <r>     2.5461     0.0000    22.0000 </r>
       <r>     3.0720     3.8035    24.0000 </r>
       <r>     3.5978     2.5165    25.3233 </r>
       <r>     4.1236     0.0000    25.3333 </r>
       <r>     4.6495     1.2678    26.0000 </r>
       <r>     5.1753     0.0013    26.0007 </r>
       <r>     5.7011     0.0000    28.0000 </r>
       <r>     6.2269     3.8035    30.0000 </r>
       <r>     6.7528     0.0000    30.0000 </r>
       <r>     7.2786     0.0000    30.0000 </r>
       <r>     7.8044     0.0000    30.0000 </r>
       <r>     8.3303     0.0000    30.0000 </r>
       <r>     8.8561     0.0000    30.0000 </r>
       <r>     9.3819     0.0000    30.0000 </r>
       <r>     9.9078     0.0000    30.0000 </r>
       <r>    10.4336     0.0684    30.0360 </r>
       <r>    10.9594     0.0000    30.6667 </r>
       <r>    11.4852     0.0000    30.6667 </r>
       <r>    12.0111     0.0000    30.6667 </r>
       <r>    12.5369     0.0000    30.6667 </r>
       <r>    13.0627     2.5357    32.0000 </r>
       <r>    13.5886     0.0000    32.0000 </r>
       <r>    14.1144     0.0000    32.0000 </r>
       <r>    14.6402     0.0000    32.0000 </r>
       <r>    15.1661     0.0000    32.0000 </r>
       <r>    15.6919     0.0000    32.0000 </r>
       <r>    16.2177     0.0000    32.0000 </r>
       <r>    16.7435     0.0000    32.0000 </r>
       <r>    17.2694     0.0000    32.0000 </r>
       <r>    17.7952     0.0000    32.0000 </r>
       <r>    18.3210     0.0000    32.0000 </r>
       <r>    18.8469     0.0000    32.0000 </r>
       <r>    19.3727     0.0000    32.0000 </r>
       <r>    19.8985     0.0000    32.0000 </r>
      </set>
     </set>
    </array>
   </total>
  </dos>
 </calculation>
 <structure name="finalpos" >
  <crystal>
   <varray name="basis" >
    <v>       3.34892000       0.00000000       1.93350000 </v>
    <v>       1.11630700       3.15739200       1.93350000 </v>
    <v>       0.00000000       0.00000000       3.86700000 </v>
   </varray>
   <i name="volume">     40.88909039 </i>
   <varray name="rec_basis" >
    <v>       0.29860373      -0.10557239       0.00000000 </v>
    <v>       0.00000000       0.31671709       0.00000000 </v>
    <v>      -0.14930186      -0.10557235       0.25859840 </v>
   </varray>
  </crystal>
  <varray name="positions" >
   <v>       0.00000000       0.00000000       0.00000000 </v>
   <v>       0.25000000       0.25000000       0.25000000 </v>
  </varray>
 </structure>
</modeling>
