   2   2   0   0
  0.2044455E+02  0.3867000E-09  0.3867000E-09  0.3867000E-09  0.5000000E-15
  1.000000000000000E-004
  CAR 
 unknown system                          
     18.27565289     -9.17998318  301      5.56598136      1.00000000
     -9.180  0.0000E+00  0.0000E+00
     -9.088  0.0000E+00  0.0000E+00
     -8.997  0.0000E+00  0.0000E+00
     -8.905  0.0000E+00  0.0000E+00
     -8.814  0.0000E+00  0.0000E+00
     -8.722  0.0000E+00  0.0000E+00
     -8.631  0.0000E+00  0.0000E+00
     -8.539  0.0000E+00  0.0000E+00
     -8.448  0.0000E+00  0.0000E+00
     -8.356  0.0000E+00  0.0000E+00
     -8.265  0.0000E+00  0.0000E+00
     -8.173  0.0000E+00  0.0000E+00
     -8.082  0.0000E+00  0.0000E+00
     -7.990  0.0000E+00  0.0000E+00
     -7.899  0.0000E+00  0.0000E+00
     -7.807  0.0000E+00  0.0000E+00
     -7.716  0.6125E-09  0.5605E-10
     -7.624  0.4731E-03  0.4330E-04
     -7.533  0.6642E+00  0.6083E-01
     -7.441  0.4375E+01  0.4612E+00
     -7.350  0.4234E+00  0.5000E+00
     -7.258  0.1656E-03  0.5000E+00
     -7.167  0.1131E-09  0.5000E+00
     -7.075  0.0000E+00  0.5000E+00
     -6.984  0.0000E+00  0.5000E+00
     -6.892  0.0000E+00  0.5000E+00
     -6.800  0.0000E+00  0.5000E+00
     -6.709  0.0000E+00  0.5000E+00
     -6.617  0.0000E+00  0.5000E+00
     -6.526  0.0000E+00  0.5000E+00
     -6.434  0.0000E+00  0.5000E+00
     -6.343  0.0000E+00  0.5000E+00
     -6.251  0.0000E+00  0.5000E+00
     -6.160  0.0000E+00  0.5000E+00
     -6.068  0.0000E+00  0.5000E+00
     -5.977  0.0000E+00  0.5000E+00
     -5.885  0.0000E+00  0.5000E+00
     -5.794  0.0000E+00  0.5000E+00
     -5.702  0.0000E+00  0.5000E+00
     -5.611  0.0000E+00  0.5000E+00
     -5.519  0.0000E+00  0.5000E+00
     -5.428  0.0000E+00  0.5000E+00
     -5.336  0.0000E+00  0.5000E+00
     -5.245  0.0000E+00  0.5000E+00
     -5.153  0.1092E-09  0.5000E+00
     -5.062  0.2092E-03  0.5000E+00
     -4.970  0.6896E+00  0.5631E+00
     -4.879  0.8656E+01  0.1355E+01
     -4.787  0.1579E+01  0.1500E+01
     -4.696  0.1443E-02  0.1500E+01
     -4.604  0.2443E-08  0.1500E+01
     -4.513  0.0000E+00  0.1500E+01
     -4.421  0.0000E+00  0.1500E+01
     -4.329  0.0000E+00  0.1500E+01
     -4.238  0.0000E+00  0.1500E+01
     -4.146  0.0000E+00  0.1500E+01
     -4.055  0.0000E+00  0.1500E+01
     -3.963  0.0000E+00  0.1500E+01
     -3.872  0.0000E+00  0.1500E+01
     -3.780  0.0000E+00  0.1500E+01
     -3.689  0.0000E+00  0.1500E+01
     -3.597  0.0000E+00  0.1500E+01
     -3.506  0.0000E+00  0.1500E+01
     -3.414  0.0000E+00  0.1500E+01
     -3.323  0.0000E+00  0.1500E+01
     -3.231  0.0000E+00  0.1500E+01
     -3.140  0.1328E-07  0.1500E+01
     -3.048  0.3996E-02  0.1500E+01
     -2.957  0.2346E+01  0.1715E+01
     -2.865  0.8184E+01  0.2464E+01
     -2.774  0.3929E+00  0.2500E+01
     -2.682  0.6247E-04  0.2500E+01
     -2.591  0.1651E-10  0.2500E+01
     -2.499  0.0000E+00  0.2500E+01
     -2.408  0.0000E+00  0.2500E+01
     -2.316  0.0000E+00  0.2500E+01
     -2.225  0.1007E-10  0.2500E+01
     -2.133  0.4534E-04  0.2500E+01
     -2.042  0.3368E+00  0.2531E+01
     -1.950  0.8013E+01  0.3264E+01
     -1.858  0.2572E+01  0.3500E+01
     -1.767  0.5128E-02  0.3500E+01
     -1.675  0.2024E-07  0.3500E+01
     -1.584  0.0000E+00  0.3500E+01
     -1.492  0.0000E+00  0.3500E+01
     -1.401  0.0000E+00  0.3500E+01
     -1.309  0.0000E+00  0.3500E+01
     -1.218  0.0000E+00  0.3500E+01
     -1.126  0.0000E+00  0.3500E+01
     -1.035  0.0000E+00  0.3500E+01
     -0.943  0.0000E+00  0.3500E+01
     -0.852  0.0000E+00  0.3500E+01
     -0.760  0.0000E+00  0.3500E+01
     -0.669  0.0000E+00  0.3500E+01
     -0.577  0.0000E+00  0.3500E+01
     -0.486  0.0000E+00  0.3500E+01
     -0.394  0.0000E+00  0.3500E+01
     -0.303  0.0000E+00  0.3500E+01
     -0.211  0.0000E+00  0.3500E+01
     -0.120  0.0000E+00  0.3500E+01
     -0.028  0.0000E+00  0.3500E+01
      0.063  0.0000E+00  0.3500E+01
      0.155  0.0000E+00  0.3500E+01
      0.246  0.0000E+00  0.3500E+01
      0.338  0.0000E+00  0.3500E+01
      0.429  0.0000E+00  0.3500E+01
      0.521  0.0000E+00  0.3500E+01
      0.613  0.0000E+00  0.3500E+01
      0.704  0.0000E+00  0.3500E+01
      0.796  0.0000E+00  0.3500E+01
      0.887  0.0000E+00  0.3500E+01
      0.979  0.0000E+00  0.3500E+01
      1.070  0.0000E+00  0.3500E+01
      1.162  0.0000E+00  0.3500E+01
      1.253  0.0000E+00  0.3500E+01
      1.345  0.0000E+00  0.3500E+01
      1.436  0.0000E+00  0.3500E+01
      1.528  0.0000E+00  0.3500E+01
      1.619  0.0000E+00  0.3500E+01
      1.711  0.0000E+00  0.3500E+01
      1.802  0.0000E+00  0.3500E+01
      1.894  0.0000E+00  0.3500E+01
      1.985  0.0000E+00  0.3500E+01
      2.077  0.0000E+00  0.3500E+01
      2.168  0.6676E-09  0.3500E+01
      2.260  0.6505E-03  0.3500E+01
      2.351  0.1135E+01  0.3604E+01
      2.443  0.8787E+01  0.4408E+01
      2.534  0.1004E+01  0.4500E+01
      2.626  0.4886E-03  0.4500E+01
      2.717  0.4213E-09  0.4500E+01
      2.809  0.0000E+00  0.4500E+01
      2.900  0.0000E+00  0.4500E+01
      2.992  0.0000E+00  0.4500E+01
      3.084  0.0000E+00  0.4500E+01
      3.175  0.0000E+00  0.4500E+01
      3.267  0.0000E+00  0.4500E+01
      3.358  0.0000E+00  0.4500E+01
      3.450  0.0000E+00  0.4500E+01
      3.541  0.0000E+00  0.4500E+01
      3.633  0.0000E+00  0.4500E+01
      3.724  0.0000E+00  0.4500E+01
      3.816  0.2426E-14  0.4500E+01
      3.907  0.2023E-06  0.4500E+01
      3.999  0.2613E-01  0.4502E+01
      4.090  0.7120E+01  0.5154E+01
      4.182  0.1435E+02  0.6468E+01
      4.273  0.3532E+00  0.6500E+01
      4.365  0.2467E-04  0.6500E+01
      4.456  0.2763E-11  0.6500E+01
      4.548  0.0000E+00  0.6500E+01
      4.639  0.0000E+00  0.6500E+01
      4.731  0.0000E+00  0.6500E+01
      4.822  0.0000E+00  0.6500E+01
      4.914  0.0000E+00  0.6500E+01
      5.005  0.0000E+00  0.6500E+01
      5.097  0.1123E-07  0.6500E+01
      5.188  0.4260E-02  0.6500E+01
      5.280  0.3093E+01  0.6783E+01
      5.372  0.1257E+02  0.7934E+01
      5.463  0.7199E+00  0.8000E+01
      5.555  0.1430E-03  0.8000E+01
      5.646  0.4775E-10  0.8000E+01
      5.738  0.0000E+00  0.8000E+01
      5.829  0.0000E+00  0.8000E+01
      5.921  0.0000E+00  0.8000E+01
      6.012  0.0000E+00  0.8000E+01
      6.104  0.0000E+00  0.8000E+01
      6.195  0.0000E+00  0.8000E+01
      6.287  0.0000E+00  0.8000E+01
      6.378  0.0000E+00  0.8000E+01
      6.470  0.0000E+00  0.8000E+01
      6.561  0.0000E+00  0.8000E+01
      6.653  0.0000E+00  0.8000E+01
      6.744  0.4125E-13  0.8000E+01
      6.836  0.1174E-05  0.8000E+01
      6.927  0.5131E-01  0.8005E+01
      7.019  0.5373E+01  0.8496E+01
      7.110  0.5448E+01  0.8995E+01
      7.202  0.5403E-01  0.9000E+01
      7.293  0.1291E-05  0.9000E+01
      7.385  0.4792E-13  0.9000E+01
      7.476  0.0000E+00  0.9000E+01
      7.568  0.0000E+00  0.9000E+01
      7.659  0.0000E+00  0.9000E+01
      7.751  0.1925E-08  0.9000E+01
      7.843  0.1248E-02  0.9000E+01
      7.934  0.1489E+01  0.9136E+01
      8.026  0.8695E+01  0.9932E+01
      8.117  0.7414E+00  0.1000E+02
      8.209  0.2456E-03  0.1000E+02
      8.300  0.1408E-09  0.1000E+02
      8.392  0.0000E+00  0.1000E+02
      8.483  0.0000E+00  0.1000E+02
      8.575  0.0000E+00  0.1000E+02
      8.666  0.0000E+00  0.1000E+02
      8.758  0.1113E-12  0.1000E+02
      8.849  0.2616E-05  0.1000E+02
      8.941  0.9529E-01  0.1001E+02
      9.032  0.8527E+01  0.1079E+02
      9.124  0.7703E+01  0.1149E+02
      9.215  0.6521E-01  0.1150E+02
      9.307  0.1299E-05  0.1150E+02
      9.398  0.4003E-13  0.1150E+02
      9.490  0.0000E+00  0.1150E+02
      9.581  0.3267E-08  0.1150E+02
      9.673  0.2258E-02  0.1150E+02
      9.764  0.2858E+01  0.1176E+02
      9.856  0.1744E+02  0.1336E+02
      9.947  0.1886E+01  0.1353E+02
     10.039  0.4314E+01  0.1392E+02
     10.130  0.8202E+00  0.1400E+02
     10.222  0.7929E-03  0.1400E+02
     10.314  0.1426E-08  0.1400E+02
     10.405  0.0000E+00  0.1400E+02
     10.497  0.0000E+00  0.1400E+02
     10.588  0.0000E+00  0.1400E+02
     10.680  0.0000E+00  0.1400E+02
     10.771  0.0000E+00  0.1400E+02
     10.863  0.0000E+00  0.1400E+02
     10.954  0.0000E+00  0.1400E+02
     11.046  0.0000E+00  0.1400E+02
     11.137  0.0000E+00  0.1400E+02
     11.229  0.0000E+00  0.1400E+02
     11.320  0.0000E+00  0.1400E+02
     11.412  0.0000E+00  0.1400E+02
     11.503  0.0000E+00  0.1400E+02
     11.595  0.0000E+00  0.1400E+02
     11.686  0.0000E+00  0.1400E+02
     11.778  0.0000E+00  0.1400E+02
     11.869  0.0000E+00  0.1400E+02
     11.961  0.0000E+00  0.1400E+02
     12.052  0.0000E+00  0.1400E+02
     12.144  0.0000E+00  0.1400E+02
     12.235  0.0000E+00  0.1400E+02
     12.327  0.0000E+00  0.1400E+02
     12.418  0.0000E+00  0.1400E+02
     12.510  0.0000E+00  0.1400E+02
     12.601  0.0000E+00  0.1400E+02
     12.693  0.0000E+00  0.1400E+02
     12.785  0.0000E+00  0.1400E+02
     12.876  0.0000E+00  0.1400E+02
     12.968  0.0000E+00  0.1400E+02
     13.059  0.0000E+00  0.1400E+02
     13.151  0.0000E+00  0.1400E+02
     13.242  0.0000E+00  0.1400E+02
     13.334  0.0000E+00  0.1400E+02
     13.425  0.0000E+00  0.1400E+02
     13.517  0.0000E+00  0.1400E+02
     13.608  0.0000E+00  0.1400E+02
     13.700  0.0000E+00  0.1400E+02
     13.791  0.0000E+00  0.1400E+02
     13.883  0.6055E-08  0.1400E+02
     13.974  0.2500E-02  0.1400E+02
     14.066  0.1963E+01  0.1418E+02
     14.157  0.8446E+01  0.1495E+02
     14.249  0.5156E+00  0.1500E+02
     14.340  0.1111E-03  0.1500E+02
     14.432  0.4042E-10  0.1500E+02
     14.523  0.0000E+00  0.1500E+02
     14.615  0.0000E+00  0.1500E+02
     14.706  0.0000E+00  0.1500E+02
     14.798  0.0000E+00  0.1500E+02
     14.889  0.0000E+00  0.1500E+02
     14.981  0.0000E+00  0.1500E+02
     15.072  0.0000E+00  0.1500E+02
     15.164  0.0000E+00  0.1500E+02
     15.256  0.0000E+00  0.1500E+02
     15.347  0.0000E+00  0.1500E+02
     15.439  0.0000E+00  0.1500E+02
     15.530  0.0000E+00  0.1500E+02
     15.622  0.0000E+00  0.1500E+02
     15.713  0.0000E+00  0.1500E+02
     15.805  0.0000E+00  0.1500E+02
     15.896  0.0000E+00  0.1500E+02
     15.988  0.0000E+00  0.1500E+02
     16.079  0.0000E+00  0.1500E+02
     16.171  0.0000E+00  0.1500E+02
     16.262  0.0000E+00  0.1500E+02
     16.354  0.0000E+00  0.1500E+02
     16.445  0.0000E+00  0.1500E+02
     16.537  0.0000E+00  0.1500E+02
     16.628  0.2244E-13  0.1500E+02
     16.720  0.7776E-06  0.1500E+02
     16.811  0.4099E-01  0.1500E+02
     16.903  0.5052E+01  0.1547E+02
     16.994  0.5767E+01  0.1599E+02
     17.086  0.6720E-01  0.1600E+02
     17.177  0.1936E-05  0.1600E+02
     17.269  0.8734E-13  0.1600E+02
     17.360  0.0000E+00  0.1600E+02
     17.452  0.0000E+00  0.1600E+02
     17.544  0.0000E+00  0.1600E+02
     17.635  0.0000E+00  0.1600E+02
     17.727  0.0000E+00  0.1600E+02
     17.818  0.0000E+00  0.1600E+02
     17.910  0.0000E+00  0.1600E+02
     18.001  0.0000E+00  0.1600E+02
     18.093  0.0000E+00  0.1600E+02
     18.184  0.0000E+00  0.1600E+02
     18.276  0.0000E+00  0.1600E+02
