       N       E                     dE             d eps       ncg     rms          rms(c)
DAV:   1    -0.784952847953E+01   -0.78495E+01   -0.23668E-02   536   0.924E-01    0.134E-01
DAV:   2    -0.784960841739E+01   -0.79938E-04   -0.25344E-04   480   0.124E-01
   1 F= -.78496084E+01 E0= -.78496084E+01  d E =-.111016E-12
