PROCAR lm decomposed
# of k-points:    3         # of bands:   8         # of ions:   2

 k-point    1 :    0.00000000 0.00000000 0.00000000     weight = 0.25000000

band   1 # energy   -7.60032205 # occ.  2.00000000

ion      s     py     pz     px    dxy    dyz    dz2    dxz    dx2    tot
  1  0.217  0.000  0.000  0.000  0.000  0.000  0.000  0.000  0.000  0.217
  2  0.217  0.000  0.000  0.000  0.000  0.000  0.000  0.000  0.000  0.217
tot  0.435  0.000  0.000  0.000  0.000  0.000  0.000  0.000  0.000  0.435

band   2 # energy    5.27458453 # occ.  2.00000000

ion      s     py     pz     px    dxy    dyz    dz2    dxz    dx2    tot
  1  0.000  0.025  0.145  0.046  0.000  0.000  0.000  0.000  0.000  0.216
  2  0.000  0.025  0.145  0.046  0.000  0.000  0.000  0.000  0.000  0.216
tot  0.000  0.049  0.290  0.092  0.000  0.000  0.000  0.000  0.000  0.432

band   3 # energy    5.27459379 # occ.  2.00000000

ion      s     py     pz     px    dxy    dyz    dz2    dxz    dx2    tot
  1  0.000  0.144  0.054  0.018  0.000  0.000  0.000  0.000  0.000  0.216
  2  0.000  0.144  0.054  0.018  0.000  0.000  0.000  0.000  0.000  0.216
tot  0.000  0.289  0.108  0.035  0.000  0.000  0.000  0.000  0.000  0.432

band   4 # energy    5.27459434 # occ.  2.00000000

ion      s     py     pz     px    dxy    dyz    dz2    dxz    dx2    tot
  1  0.000  0.047  0.017  0.152  0.000  0.000  0.000  0.000  0.000  0.216
  2  0.000  0.047  0.017  0.152  0.000  0.000  0.000  0.000  0.000  0.216
tot  0.000  0.093  0.034  0.304  0.000  0.000  0.000  0.000  0.000  0.432

band   5 # energy    8.89825409 # occ.  0.00000000

ion      s     py     pz     px    dxy    dyz    dz2    dxz    dx2    tot
  1  0.000  0.016  0.099  0.034  0.000  0.000  0.000  0.000  0.000  0.149
  2  0.000  0.016  0.099  0.034  0.000  0.000  0.000  0.000  0.000  0.149
tot  0.000  0.033  0.198  0.067  0.000  0.000  0.000  0.000  0.000  0.298

band   6 # energy    8.89826941 # occ.  0.00000000

ion      s     py     pz     px    dxy    dyz    dz2    dxz    dx2    tot
  1  0.000  0.033  0.013  0.103  0.000  0.000  0.000  0.000  0.000  0.149
  2  0.000  0.033  0.013  0.103  0.000  0.000  0.000  0.000  0.000  0.149
tot  0.000  0.065  0.026  0.207  0.000  0.000  0.000  0.000  0.000  0.298

band   7 # energy    8.89826961 # occ.  0.00000000

ion      s     py     pz     px    dxy    dyz    dz2    dxz    dx2    tot
  1  0.000  0.100  0.037  0.012  0.000  0.000  0.000  0.000  0.000  0.149
  2  0.000  0.100  0.037  0.012  0.000  0.000  0.000  0.000  0.000  0.149
tot  0.000  0.200  0.074  0.024  0.000  0.000  0.000  0.000  0.000  0.298

band   8 # energy    9.83703847 # occ.  0.00000000

ion      s     py     pz     px    dxy    dyz    dz2    dxz    dx2    tot
  1  0.365  0.000  0.000  0.000  0.000  0.000  0.000  0.000  0.000  0.365
  2  0.365  0.000  0.000  0.000  0.000  0.000  0.000  0.000  0.000  0.365
tot  0.730  0.000  0.000  0.000  0.000  0.000  0.000  0.000  0.000  0.730


 k-point    2 :    0.50000000 0.00000000 0.00000000     weight = 0.50000000

band   1 # energy   -5.06997435 # occ.  2.00000000

ion      s     py     pz     px    dxy    dyz    dz2    dxz    dx2    tot
  1  0.227  0.002  0.000  0.013  0.000  0.000  0.000  0.000  0.000  0.241
  2  0.227  0.002  0.000  0.013  0.000  0.000  0.000  0.000  0.000  0.241
tot  0.454  0.003  0.000  0.025  0.000  0.000  0.000  0.000  0.000  0.482

band   2 # energy   -2.06672527 # occ.  2.00000000

ion      s     py     pz     px    dxy    dyz    dz2    dxz    dx2    tot
  1  0.100  0.010  0.000  0.084  0.000  0.000  0.000  0.000  0.000  0.194
  2  0.100  0.010  0.000  0.084  0.000  0.000  0.000  0.000  0.000  0.194
tot  0.200  0.021  0.000  0.168  0.000  0.000  0.000  0.000  0.000  0.388

band   3 # energy    4.02034262 # occ.  2.00000000

ion      s     py     pz     px    dxy    dyz    dz2    dxz    dx2    tot
  1  0.000  0.048  0.163  0.006  0.000  0.000  0.000  0.000  0.000  0.217
  2  0.000  0.048  0.163  0.006  0.000  0.000  0.000  0.000  0.000  0.217
tot  0.000  0.097  0.326  0.012  0.000  0.000  0.000  0.000  0.000  0.434

band   4 # energy    4.02035286 # occ.  2.00000000

ion      s     py     pz     px    dxy    dyz    dz2    dxz    dx2    tot
  1  0.000  0.145  0.054  0.018  0.000  0.000  0.000  0.000  0.000  0.217
  2  0.000  0.145  0.054  0.018  0.000  0.000  0.000  0.000  0.000  0.217
tot  0.000  0.289  0.109  0.036  0.000  0.000  0.000  0.000  0.000  0.434

band   5 # energy    7.86411354 # occ.  0.00000000

ion      s     py     pz     px    dxy    dyz    dz2    dxz    dx2    tot
  1  0.188  0.002  0.000  0.016  0.000  0.000  0.000  0.000  0.000  0.206
  2  0.188  0.002  0.000  0.016  0.000  0.000  0.000  0.000  0.000  0.206
tot  0.376  0.004  0.000  0.033  0.000  0.000  0.000  0.000  0.000  0.413

band   6 # energy    9.69145271 # occ.  0.00000000

ion      s     py     pz     px    dxy    dyz    dz2    dxz    dx2    tot
  1  0.000  0.020  0.069  0.003  0.000  0.000  0.000  0.000  0.000  0.091
  2  0.000  0.020  0.069  0.003  0.000  0.000  0.000  0.000  0.000  0.091
tot  0.000  0.041  0.137  0.005  0.000  0.000  0.000  0.000  0.000  0.183

band   7 # energy    9.69148295 # occ.  0.00000000

ion      s     py     pz     px    dxy    dyz    dz2    dxz    dx2    tot
  1  0.000  0.061  0.023  0.008  0.000  0.000  0.000  0.000  0.000  0.091
  2  0.000  0.061  0.023  0.008  0.000  0.000  0.000  0.000  0.000  0.091
tot  0.000  0.122  0.046  0.015  0.000  0.000  0.000  0.000  0.000  0.183

band   8 # energy   14.11301005 # occ.  0.00000000

ion      s     py     pz     px    dxy    dyz    dz2    dxz    dx2    tot
  1  0.007  0.005  0.000  0.042  0.000  0.000  0.000  0.000  0.000  0.054
  2  0.007  0.005  0.000  0.042  0.000  0.000  0.000  0.000  0.000  0.054
tot  0.014  0.010  0.000  0.084  0.000  0.000  0.000  0.000  0.000  0.108


 k-point    3 :    0.50000000 0.50000000 0.00000000     weight = 0.25000000

band   1 # energy   -3.06680655 # occ.  2.00000000

ion      s     py     pz     px    dxy    dyz    dz2    dxz    dx2    tot
  1  0.197  0.015  0.000  0.030  0.000  0.000  0.000  0.000  0.000  0.242
  2  0.193  0.016  0.000  0.031  0.000  0.000  0.000  0.000  0.000  0.239
tot  0.389  0.031  0.000  0.061  0.000  0.000  0.000  0.000  0.000  0.481

band   2 # energy   -3.06680383 # occ.  2.00000000

ion      s     py     pz     px    dxy    dyz    dz2    dxz    dx2    tot
  1  0.193  0.016  0.000  0.031  0.000  0.000  0.000  0.000  0.000  0.239
  2  0.197  0.015  0.000  0.030  0.000  0.000  0.000  0.000  0.000  0.242
tot  0.389  0.031  0.000  0.061  0.000  0.000  0.000  0.000  0.000  0.481

band   3 # energy    2.29022228 # occ.  2.00000000

ion      s     py     pz     px    dxy    dyz    dz2    dxz    dx2    tot
  1  0.000  0.000  0.197  0.000  0.000  0.000  0.000  0.000  0.000  0.197
  2  0.000  0.000  0.197  0.000  0.000  0.000  0.000  0.000  0.000  0.197
tot  0.000  0.000  0.393  0.000  0.000  0.000  0.000  0.000  0.000  0.393

band   4 # energy    2.29022845 # occ.  2.00000000

ion      s     py     pz     px    dxy    dyz    dz2    dxz    dx2    tot
  1  0.000  0.131  0.000  0.066  0.000  0.000  0.000  0.000  0.000  0.197
  2  0.000  0.131  0.000  0.066  0.000  0.000  0.000  0.000  0.000  0.197
tot  0.000  0.262  0.000  0.131  0.000  0.000  0.000  0.000  0.000  0.393

band   5 # energy    6.96874644 # occ.  0.00000000

ion      s     py     pz     px    dxy    dyz    dz2    dxz    dx2    tot
  1  0.052  0.011  0.000  0.022  0.000  0.000  0.000  0.000  0.000  0.086
  2  0.052  0.011  0.000  0.022  0.000  0.000  0.000  0.000  0.000  0.086
tot  0.104  0.022  0.000  0.045  0.000  0.000  0.000  0.000  0.000  0.172

band   6 # energy    6.96876193 # occ.  0.00000000

ion      s     py     pz     px    dxy    dyz    dz2    dxz    dx2    tot
  1  0.052  0.011  0.000  0.022  0.000  0.000  0.000  0.000  0.000  0.086
  2  0.052  0.011  0.000  0.022  0.000  0.000  0.000  0.000  0.000  0.086
tot  0.104  0.022  0.000  0.045  0.000  0.000  0.000  0.000  0.000  0.172

band   7 # energy   16.80610553 # occ.  0.00000000

ion      s     py     pz     px    dxy    dyz    dz2    dxz    dx2    tot
  1  0.000  0.000  0.240  0.000  0.000  0.000  0.000  0.000  0.000  0.240
  2  0.000  0.000  0.240  0.000  0.000  0.000  0.000  0.000  0.000  0.240
tot  0.000  0.000  0.479  0.000  0.000  0.000  0.000  0.000  0.000  0.479

band   8 # energy   16.80611742 # occ.  0.00000000

ion      s     py     pz     px    dxy    dyz    dz2    dxz    dx2    tot
  1  0.000  0.160  0.000  0.080  0.000  0.000  0.000  0.000  0.000  0.240
  2  0.000  0.160  0.000  0.080  0.000  0.000  0.000  0.000  0.000  0.240
tot  0.000  0.320  0.000  0.160  0.000  0.000  0.000  0.000  0.000  0.479

