<?xml version="1.0" encoding="ISO-8859-1"?>
<modeling>
 <generator>
  <i name="program" type="string">vasp </i>
  <i name="version" type="string">5.4.4.18Apr17-6-g9f103f2a35  </i>
  <i name="subversion" type="string">(build Apr 10 2018 20:41:27) complex            parallel </i>
  <i name="platform" type="string">LinuxIFC </i>
  <i name="date" type="string">2018 04 17 </i>
  <i name="time" type="string">22:21:37 </i>
 </generator>
 <incar>
  <i type="int" name="ISTART">     1</i>
  <i type="string" name="PREC">normal</i>
  <i type="string" name="ALGO"> NORMAL</i>
  <i name="TIME">      0.20000000</i>
  <i type="int" name="ISMEAR">     0</i>
  <i name="SIGMA">      0.05000000</i>
  <i type="int" name="LMAXMIX">     4</i>
  <i type="logical" name="LWAVE"> F  </i>
  <v type="int" name="KPOINT_BSE">    -1     0     0     0</v>
  <i type="logical" name="LHFCALC"> T  </i>
  <i name="HFSCREEN">      0.20000000</i>
 </incar>
 <structure name="primitive_cell" >
  <crystal>
   <varray name="basis" >
    <v>       3.34892024       0.00000000       1.93350000 </v>
    <v>       1.11630674       3.15739228       1.93350000 </v>
    <v>       0.00000000       0.00000000       3.86700000 </v>
   </varray>
   <i name="volume">     40.88909687 </i>
   <varray name="rec_basis" >
    <v>       0.29860371      -0.10557235       0.00000000 </v>
    <v>       0.00000000       0.31671706       0.00000000 </v>
    <v>      -0.14930185      -0.10557235       0.25859840 </v>
   </varray>
  </crystal>
  <varray name="positions" >
   <v>       0.00000000       0.00000000       0.00000000 </v>
   <v>       0.25000000       0.25000000       0.25000000 </v>
  </varray>
 </structure>
 <varray name="primitive_index" >
  <v type="int" >        1 </v>
  <v type="int" >        2 </v>
 </varray>
 <kpoints>
  <varray name="kpointlist" >
   <v>       0.00000000       0.00000000       0.00000000 </v>
   <v>       0.50000000       0.00000000       0.00000000 </v>
   <v>       0.50000000       0.50000000       0.00000000 </v>
   <v>       0.00000000       0.00000000       0.00000000 </v>
   <v>       0.10000000       0.00000000       0.10000000 </v>
   <v>       0.20000000       0.00000000       0.20000000 </v>
   <v>       0.30000000       0.00000000       0.30000000 </v>
   <v>       0.40000000       0.00000000       0.40000000 </v>
   <v>       0.50000000       0.00000000       0.50000000 </v>
   <v>       0.50000000       0.05000000       0.55000000 </v>
   <v>       0.50000000       0.10000000       0.60000000 </v>
   <v>       0.50000000       0.15000000       0.65000000 </v>
   <v>       0.50000000       0.20000000       0.70000000 </v>
   <v>       0.50000000       0.25000000       0.75000000 </v>
   <v>       0.47500000       0.27500000       0.75000000 </v>
   <v>       0.45000000       0.30000000       0.75000000 </v>
   <v>       0.42500000       0.32500000       0.75000000 </v>
   <v>       0.40000000       0.35000000       0.75000000 </v>
   <v>       0.37500000       0.37500000       0.75000000 </v>
   <v>       0.30000000       0.30000000       0.60000000 </v>
   <v>       0.22500000       0.22500000       0.45000000 </v>
   <v>       0.15000000       0.15000000       0.30000000 </v>
   <v>       0.07500000       0.07500000       0.15000000 </v>
   <v>       0.00000000       0.00000000       0.00000000 </v>
  </varray>
  <varray name="weights" >
   <v>       0.25000000 </v>
   <v>       0.50000000 </v>
   <v>       0.25000000 </v>
   <v>       0.00000000 </v>
   <v>       0.00000000 </v>
   <v>       0.00000000 </v>
   <v>       0.00000000 </v>
   <v>       0.00000000 </v>
   <v>       0.00000000 </v>
   <v>       0.00000000 </v>
   <v>       0.00000000 </v>
   <v>       0.00000000 </v>
   <v>       0.00000000 </v>
   <v>       0.00000000 </v>
   <v>       0.00000000 </v>
   <v>       0.00000000 </v>
   <v>       0.00000000 </v>
   <v>       0.00000000 </v>
   <v>       0.00000000 </v>
   <v>       0.00000000 </v>
   <v>       0.00000000 </v>
   <v>       0.00000000 </v>
   <v>       0.00000000 </v>
   <v>       0.00000000 </v>
  </varray>
 </kpoints>
 <parameters>
  <separator name="general" >
   <i type="string" name="SYSTEM">unknown system</i>
   <i type="logical" name="LCOMPAT"> F  </i>
  </separator>
  <separator name="electronic" >
   <i type="string" name="PREC">normal</i>
   <i name="ENMAX">    245.34500000</i>
   <i name="ENAUG">    322.06900000</i>
   <i name="EDIFF">      0.00010000</i>
   <i type="int" name="IALGO">    38</i>
   <i type="int" name="IWAVPR">    10</i>
   <i type="int" name="NBANDS">     8</i>
   <i name="NELECT">      8.00000000</i>
   <i type="int" name="TURBO">     0</i>
   <i type="int" name="IRESTART">     0</i>
   <i type="int" name="NREBOOT">     0</i>
   <i type="int" name="NMIN">     0</i>
   <i name="EREF">      0.00000000</i>
   <separator name="electronic smearing" >
    <i type="int" name="ISMEAR">     0</i>
    <i name="SIGMA">      0.05000000</i>
    <i name="KSPACING">      0.50000000</i>
    <i type="logical" name="KGAMMA"> T  </i>
   </separator>
   <separator name="electronic projectors" >
    <i type="logical" name="LREAL"> F  </i>
    <v name="ROPT">      0.00000000</v>
    <i type="int" name="LMAXPAW">  -100</i>
    <i type="int" name="LMAXMIX">     4</i>
    <i type="logical" name="NLSPLINE"> F  </i>
   </separator>
   <separator name="electronic startup" >
    <i type="int" name="ISTART">     1</i>
    <i type="int" name="ICHARG">     0</i>
    <i type="int" name="INIWAV">     1</i>
   </separator>
   <separator name="electronic spin" >
    <i type="int" name="ISPIN">     1</i>
    <i type="logical" name="LNONCOLLINEAR"> F  </i>
    <v name="MAGMOM">      1.00000000      1.00000000</v>
    <i name="NUPDOWN">     -1.00000000</i>
    <i type="logical" name="LSORBIT"> F  </i>
    <v name="SAXIS">      0.00000000      0.00000000      1.00000000</v>
    <i type="logical" name="LSPIRAL"> F  </i>
    <v name="QSPIRAL">      0.00000000      0.00000000      0.00000000</v>
    <i type="logical" name="LZEROZ"> F  </i>
   </separator>
   <separator name="electronic exchange-correlation" >
    <i type="logical" name="LASPH"> F  </i>
    <i type="logical" name="LMETAGGA"> F  </i>
   </separator>
   <separator name="electronic convergence" >
    <i type="int" name="NELM">    60</i>
    <i type="int" name="NELMDL">     0</i>
    <i type="int" name="NELMIN">     2</i>
    <i name="ENINI">    245.34500000</i>
    <separator name="electronic convergence detail" >
     <i type="logical" name="LDIAG"> T  </i>
     <i type="logical" name="LSUBROT"> F  </i>
     <i name="WEIMIN">      0.00000000</i>
     <i name="EBREAK">      0.00000313</i>
     <i name="DEPER">      0.30000000</i>
     <i type="int" name="NRMM">     4</i>
     <i name="TIME">      0.20000000</i>
    </separator>
   </separator>
   <separator name="electronic mixer" >
    <i name="AMIX">      0.40000000</i>
    <i name="BMIX">      1.00000000</i>
    <i name="AMIN">      0.10000000</i>
    <i name="AMIX_MAG">      1.60000000</i>
    <i name="BMIX_MAG">      1.00000000</i>
    <separator name="electronic mixer details" >
     <i type="int" name="IMIX">     1</i>
     <i type="logical" name="MIXFIRST"> F  </i>
     <i type="int" name="MAXMIX">   -45</i>
     <i name="WC">    100.00000000</i>
     <i type="int" name="INIMIX">     1</i>
     <i type="int" name="MIXPRE">     1</i>
     <i type="int" name="MREMOVE">     5</i>
    </separator>
   </separator>
   <separator name="electronic dipolcorrection" >
    <i type="logical" name="LDIPOL"> F  </i>
    <i type="logical" name="LMONO"> F  </i>
    <i type="int" name="IDIPOL">     0</i>
    <i name="EPSILON">      1.00000000</i>
    <v name="DIPOL">   -100.00000000   -100.00000000   -100.00000000</v>
    <i name="EFIELD">      0.00000000</i>
   </separator>
  </separator>
  <separator name="grids" >
   <i type="int" name="NGX">    16</i>
   <i type="int" name="NGY">    16</i>
   <i type="int" name="NGZ">    16</i>
   <i type="int" name="NGXF">    32</i>
   <i type="int" name="NGYF">    32</i>
   <i type="int" name="NGZF">    32</i>
   <i type="logical" name="ADDGRID"> F  </i>
  </separator>
  <separator name="ionic" >
   <i type="int" name="NSW">     0</i>
   <i type="int" name="IBRION">    -1</i>
   <i type="int" name="MDALGO">     0</i>
   <i type="int" name="ISIF">     0</i>
   <i name="PSTRESS">      0.00000000</i>
   <i name="EDIFFG">      0.00100000</i>
   <i type="int" name="NFREE">     0</i>
   <i name="POTIM">      0.50000000</i>
   <i name="SMASS">     -3.00000000</i>
   <i name="SCALEE">      1.00000000</i>
  </separator>
  <separator name="ionic md" >
   <i name="TEBEG">      0.00010000</i>
   <i name="TEEND">      0.00010000</i>
   <i type="int" name="NBLOCK">     1</i>
   <i type="int" name="KBLOCK">     1</i>
   <i type="int" name="NPACO">   256</i>
   <i name="APACO">     16.00000000</i>
  </separator>
  <separator name="symmetry" >
   <i type="int" name="ISYM">     3</i>
   <i name="SYMPREC">      0.00001000</i>
  </separator>
  <separator name="dos" >
   <i type="int" name="LORBIT">     0</i>
   <v name="RWIGS">     -1.00000000</v>
   <i type="int" name="NEDOS">   301</i>
   <i name="EMIN">     10.00000000</i>
   <i name="EMAX">    -10.00000000</i>
   <i name="EFERMI">      0.00000000</i>
  </separator>
  <separator name="writing" >
   <i type="int" name="NWRITE">     2</i>
   <i type="logical" name="LWAVE"> F  </i>
   <i type="logical" name="LDOWNSAMPLE"> F  </i>
   <i type="logical" name="LCHARG"> T  </i>
   <i type="logical" name="LPARD"> F  </i>
   <i type="logical" name="LVTOT"> F  </i>
   <i type="logical" name="LVHAR"> F  </i>
   <i type="logical" name="LELF"> F  </i>
   <i type="logical" name="LOPTICS"> F  </i>
   <v name="STM">      0.00000000      0.00000000      0.00000000      0.00000000      0.00000000      0.00000000      0.00000000</v>
  </separator>
  <separator name="performance" >
   <i type="int" name="NPAR">     1</i>
   <i type="int" name="NSIM">     4</i>
   <i type="int" name="NBLK">    -1</i>
   <i type="logical" name="LPLANE"> T  </i>
   <i type="logical" name="LSCALAPACK"> T  </i>
   <i type="logical" name="LSCAAWARE"> F  </i>
   <i type="logical" name="LSCALU"> F  </i>
   <i type="logical" name="LASYNC"> F  </i>
   <i type="logical" name="LORBITALREAL"> F  </i>
  </separator>
  <separator name="miscellaneous" >
   <i type="int" name="IDIOT">     3</i>
   <i type="int" name="ISPECIAL">     0</i>
   <i type="logical" name="LMUSIC"> F  </i>
   <v name="POMASS">     28.08500000</v>
   <v name="DARWINR">      0.00000000</v>
   <v name="DARWINV">      1.00000000</v>
   <i type="logical" name="LCORR"> T  </i>
  </separator>
  <i type="logical" name="GGA_COMPAT"> T  </i>
  <i type="logical" name="LBERRY"> F  </i>
  <i type="int" name="ICORELEVEL">     0</i>
  <i type="logical" name="LDAU"> F  </i>
  <i type="int" name="I_CONSTRAINED_M">     0</i>
  <separator name="electronic exchange-correlation" >
   <i type="string" name="GGA">--</i>
   <i type="int" name="VOSKOWN">     0</i>
   <i type="logical" name="LHFCALC"> T  </i>
   <i type="string" name="PRECFOCK">normal</i>
   <i type="logical" name="LSYMGRAD"> F  </i>
   <i type="logical" name="LHFONE"> F  </i>
   <i type="logical" name="LRHFCALC"> F  </i>
   <i type="logical" name="LTHOMAS"> F  </i>
   <i type="logical" name="LMODELHF"> F  </i>
   <i name="ENCUT4O">     -1.00000000</i>
   <i type="int" name="EXXOEP">     0</i>
   <i type="int" name="FOURORBIT">     0</i>
   <i name="AEXX">      0.25000000</i>
   <i name="HFALPHA">     -1.00000000</i>
   <i name="MCALPHA">      0.00000000</i>
   <i name="ALDAX">      0.75000000</i>
   <i name="AGGAX">      0.75000000</i>
   <i name="ALDAC">      1.00000000</i>
   <i name="AGGAC">      1.00000000</i>
   <i type="int" name="NKREDX">     1</i>
   <i type="int" name="NKREDY">     1</i>
   <i type="int" name="NKREDZ">     1</i>
   <i type="logical" name="SHIFTRED"> F  </i>
   <i type="logical" name="ODDONLY"> F  </i>
   <i type="logical" name="EVENONLY"> F  </i>
   <i type="int" name="LMAXFOCK">     4</i>
   <i type="int" name="NMAXFOCKAE">     1</i>
   <i type="logical" name="LFOCKAEDFT"> F  </i>
   <i name="HFSCREEN">      0.20000000</i>
   <i name="HFSCREENC">      0.20000000</i>
   <i type="int" name="NBANDSGWLOW">     1</i>
  </separator>
  <separator name="vdW DFT" >
   <i type="logical" name="LUSE_VDW"> F  </i>
   <i name="Zab_VDW">     -0.84910000</i>
   <i name="PARAM1">      0.12340000</i>
   <i name="PARAM2">      1.00000000</i>
   <i name="PARAM3">      0.00000000</i>
  </separator>
  <separator name="model GW" >
   <i type="int" name="MODEL_GW">     0</i>
   <i name="MODEL_EPS0">     12.26672906</i>
   <i name="MODEL_ALPHA">      1.00000000</i>
  </separator>
  <separator name="linear response parameters" >
   <i type="logical" name="LEPSILON"> F  </i>
   <i type="logical" name="LRPA"> F  </i>
   <i type="logical" name="LNABLA"> F  </i>
   <i type="logical" name="LVEL"> F  </i>
   <i type="int" name="KINTER">     0</i>
   <i name="CSHIFT">      0.10000000</i>
   <i name="OMEGAMAX">     -1.00000000</i>
   <i name="DEG_THRESHOLD">      0.00200000</i>
   <i name="RTIME">     -0.10000000</i>
   <i name="WPLASMAI">      0.00000000</i>
   <v name="DFIELD">      0.00000000      0.00000000      0.00000000</v>
   <v name="WPLASMA">      0.00000000      0.00000000      0.00000000      0.00000000      0.00000000      0.00000000      0.00000000      0.00000000      0.00000000</v>
  </separator>
  <separator name="orbital magnetization" >
   <i type="logical" name="NUCIND"> F  </i>
   <v name="MAGPOS">      0.00000000      0.00000000      0.00000000</v>
   <i type="logical" name="LNICSALL"> T  </i>
   <i type="logical" name="ORBITALMAG"> F  </i>
   <i type="logical" name="LMAGBLOCH"> F  </i>
   <i type="logical" name="LCHIMAG"> F  </i>
   <i type="logical" name="LGAUGE"> T  </i>
   <i type="int" name="MAGATOM">     0</i>
   <v name="MAGDIPOL">      0.00000000      0.00000000      0.00000000</v>
   <v name="AVECCONST">      0.00000000      0.00000000      0.00000000</v>
  </separator>
  <separator name="response functions" >
   <i type="logical" name="LADDER"> F  </i>
   <i type="logical" name="LRPAFORCE"> F  </i>
   <i type="logical" name="LFXC"> F  </i>
   <i type="logical" name="LHARTREE"> T  </i>
   <i type="int" name="IBSE">     0</i>
   <v type="int" name="KPOINT">    -1     0     0     0</v>
   <i type="logical" name="LTCTE"> F  </i>
   <i type="logical" name="LTETE"> F  </i>
   <i type="logical" name="LTRIPLET"> F  </i>
   <i type="logical" name="LFXCEPS"> F  </i>
   <i type="logical" name="LFXHEG"> F  </i>
   <i type="int" name="NATURALO">     2</i>
   <i type="logical" name="L2ORDER"> F  </i>
   <i type="logical" name="LMP2LT"> F  </i>
   <i type="logical" name="LUSEW"> F  </i>
   <i name="ENCUTGW">     -2.00000000</i>
   <i name="ENCUTGWSOFT">     -2.00000000</i>
   <i name="ENCUTLF">     -1.00000000</i>
   <i type="int" name="LMAXMP2">    -1</i>
   <i name="SCISSOR">      0.00000000</i>
   <i type="int" name="NOMEGA">     0</i>
   <i type="int" name="NOMEGAR">     0</i>
   <i type="int" name="NBANDSGW">    -1</i>
   <i type="int" name="NBANDSO">    -1</i>
   <i type="int" name="NBANDSV">    -1</i>
   <i type="int" name="NELM">     1</i>
   <i type="int" name="NELMHF">     1</i>
   <i type="int" name="DIM">     3</i>
   <i type="int" name="ANTIRES">     0</i>
   <i name="OMEGAMAX">    -30.00000000</i>
   <i name="OMEGAMIN">    -30.00000000</i>
   <i name="OMEGATL">   -200.00000000</i>
   <i type="int" name="OMEGAGRID">   140</i>
   <i name="CSHIFT">     -0.10000000</i>
   <i type="logical" name="SELFENERGY"> F  </i>
   <i type="logical" name="LSPECTRAL"> F  </i>
   <i type="logical" name="LSPECTRALGW"> F  </i>
   <i type="logical" name="LSINGLES"> F  </i>
   <i type="logical" name="LFERMIGW"> F  </i>
   <i type="logical" name="ODDONLYGW"> F  </i>
   <i type="logical" name="EVENONLYGW"> F  </i>
   <i type="int" name="NKREDLFX">     1</i>
   <i type="int" name="NKREDLFY">     1</i>
   <i type="int" name="NKREDLFZ">     1</i>
   <i type="int" name="MAXMEM">  2800</i>
   <i type="int" name="TELESCOPE">     0</i>
   <i type="int" name="TAUPAR">     1</i>
   <i type="int" name="OMEGAPAR">    -1</i>
   <i name="LAMBDA">      1.00000000</i>
  </separator>
  <separator name="External order field" >
   <i name="OFIELD_KAPPA">      0.00000000</i>
   <v name="OFIELD_K">      0.00000000      0.00000000      0.00000000</v>
   <i name="OFIELD_Q6_NEAR">      0.00000000</i>
   <i name="OFIELD_Q6_FAR">      0.00000000</i>
   <i name="OFIELD_A">      0.00000000</i>
  </separator>
 </parameters>
 <atominfo>
  <atoms>       2 </atoms>
  <types>       1 </types>
  <array name="atoms" >
   <dimension dim="1">ion</dimension>
   <field type="string">element</field>
   <field type="int">atomtype</field>
   <set>
    <rc><c>Si</c><c>   1</c></rc>
    <rc><c>Si</c><c>   1</c></rc>
   </set>
  </array>
  <array name="atomtypes" >
   <dimension dim="1">type</dimension>
   <field type="int">atomspertype</field>
   <field type="string">element</field>
   <field>mass</field>
   <field>valence</field>
   <field type="string">pseudopotential</field>
   <set>
    <rc><c>   2</c><c>Si</c><c>     28.08500000</c><c>      4.00000000</c><c>  PAW_PBE Si 05Jan2001                  </c></rc>
   </set>
  </array>
 </atominfo>
 <structure name="initialpos" >
  <crystal>
   <varray name="basis" >
    <v>       3.34892024       0.00000000       1.93350000 </v>
    <v>       1.11630674       3.15739228       1.93350000 </v>
    <v>       0.00000000       0.00000000       3.86700000 </v>
   </varray>
   <i name="volume">     40.88909687 </i>
   <varray name="rec_basis" >
    <v>       0.29860371      -0.10557235       0.00000000 </v>
    <v>       0.00000000       0.31671706       0.00000000 </v>
    <v>      -0.14930185      -0.10557235       0.25859840 </v>
   </varray>
  </crystal>
  <varray name="positions" >
   <v>       0.00000000       0.00000000       0.00000000 </v>
   <v>       0.25000000       0.25000000       0.25000000 </v>
  </varray>
 </structure>
 <calculation>
  <scstep>
   <time name="dav">    3.59    4.03</time>
   <time name="total">    3.75    4.21</time>
   <energy>
    <i name="alphaZ">      3.29311561 </i>
    <i name="ewald">   -226.94341454 </i>
    <i name="hartreedc">    -18.45345019 </i>
    <i name="XCdc">    -14.16796305 </i>
    <i name="pawpsdc">   1872.96322596 </i>
    <i name="pawaedc">  -1845.36852701 </i>
    <i name="eentropy">     -0.00000000 </i>
    <i name="bandstr">      5.05209693 </i>
    <i name="atom">    203.98841547 </i>
    <i name="e_fr_energy">     -7.84952848 </i>
    <i name="e_wo_entrp">     -7.84952848 </i>
    <i name="e_0_energy">     -7.84952848 </i>
   </energy>
  </scstep>
  <scstep>
   <time name="dav">    3.50    3.56</time>
   <time name="total">    3.67    3.73</time>
   <energy>
    <i name="alphaZ">      3.29311561 </i>
    <i name="ewald">   -226.94341454 </i>
    <i name="hartreedc">    -18.40260520 </i>
    <i name="XCdc">    -14.17098460 </i>
    <i name="pawpsdc">   1885.92519303 </i>
    <i name="pawaedc">  -1858.32671521 </i>
    <i name="eentropy">     -0.00000000 </i>
    <i name="bandstr">      5.00881426 </i>
    <i name="atom">    203.98841547 </i>
    <i name="e_fr_energy">     -7.84960842 </i>
    <i name="e_wo_entrp">     -7.84960842 </i>
    <i name="e_0_energy">     -7.84960842 </i>
   </energy>
  </scstep>
  <structure>
   <crystal>
    <varray name="basis" >
     <v>       3.34892024       0.00000000       1.93350000 </v>
     <v>       1.11630674       3.15739228       1.93350000 </v>
     <v>       0.00000000       0.00000000       3.86700000 </v>
    </varray>
    <i name="volume">     40.88909687 </i>
    <varray name="rec_basis" >
     <v>       0.29860371      -0.10557235       0.00000000 </v>
     <v>       0.00000000       0.31671706       0.00000000 </v>
     <v>      -0.14930185      -0.10557235       0.25859840 </v>
    </varray>
   </crystal>
   <varray name="positions" >
    <v>       0.00000000       0.00000000       0.00000000 </v>
    <v>       0.25000000       0.25000000       0.25000000 </v>
   </varray>
  </structure>
  <varray name="forces" >
   <v>      -0.00000000      -0.00000000      -0.00000000 </v>
   <v>       0.00000000       0.00000000       0.00000000 </v>
  </varray>
  <energy>
   <i name="e_fr_energy">     -7.84960842 </i>
   <i name="e_wo_entrp">     -7.84960842 </i>
   <i name="e_0_energy">     -0.00000000 </i>
  </energy>
  <time name="totalsc">    8.36    8.88</time>
  <eigenvalues>
   <array>
    <dimension dim="1">band</dimension>
    <dimension dim="2">kpoint</dimension>
    <dimension dim="3">spin</dimension>
    <field>eigene</field>
    <field>occ</field>
    <set>
     <set comment="spin 1">
      <set comment="kpoint 1">
       <r>   -7.4914    1.0000 </r>
       <r>    5.3112    1.0000 </r>
       <r>    5.3112    1.0000 </r>
       <r>    5.3112    1.0000 </r>
       <r>    9.0299    0.0000 </r>
       <r>    9.0300    0.0000 </r>
       <r>    9.0300    0.0000 </r>
       <r>   10.0024    0.0000 </r>
      </set>
      <set comment="kpoint 2">
       <r>   -4.9161    1.0000 </r>
       <r>   -1.9754    1.0000 </r>
       <r>    4.1061    1.0000 </r>
       <r>    4.1061    1.0000 </r>
       <r>    7.9728    0.0000 </r>
       <r>    9.8041    0.0000 </r>
       <r>    9.8041    0.0000 </r>
       <r>   14.0982    0.0000 </r>
      </set>
      <set comment="kpoint 3">
       <r>   -2.9288    1.0000 </r>
       <r>   -2.9288    1.0000 </r>
       <r>    2.3959    1.0000 </r>
       <r>    2.3959    1.0000 </r>
       <r>    7.0191    0.0000 </r>
       <r>    7.0192    0.0000 </r>
       <r>   16.9059    0.0000 </r>
       <r>   16.9059    0.0000 </r>
      </set>
      <set comment="kpoint 4">
       <r>   -7.4913    1.0000 </r>
       <r>    5.3138    1.0000 </r>
       <r>    5.3138    1.0000 </r>
       <r>    5.3301    1.0000 </r>
       <r>    9.0302    0.0000 </r>
       <r>    9.0440    0.0000 </r>
       <r>    9.0440    0.0000 </r>
       <r>   10.1849    0.0000 </r>
      </set>
      <set comment="kpoint 5">
       <r>   -7.9320    1.0000 </r>
       <r>    3.9163    1.0000 </r>
       <r>    4.2722    1.0000 </r>
       <r>    4.2787    1.0000 </r>
       <r>    8.6168    0.0000 </r>
       <r>    9.6720    0.0000 </r>
       <r>    9.7195    0.0000 </r>
       <r>   10.8220    0.0000 </r>
      </set>
      <set comment="kpoint 6">
       <r>   -6.9644    1.0000 </r>
       <r>    2.6040    1.0000 </r>
       <r>    3.7715    1.0000 </r>
       <r>    3.7717    1.0000 </r>
       <r>    7.8168    0.0000 </r>
       <r>   10.3324    0.0000 </r>
       <r>   11.2318    0.0000 </r>
       <r>   11.2937    0.0000 </r>
      </set>
      <set comment="kpoint 7">
       <r>   -5.7751    1.0000 </r>
       <r>    0.8774    1.0000 </r>
       <r>    3.1645    1.0000 </r>
       <r>    3.1646    1.0000 </r>
       <r>    7.1761    0.0000 </r>
       <r>    8.7696    0.0000 </r>
       <r>   13.1602    0.0000 </r>
       <r>   13.1908    0.0000 </r>
      </set>
      <set comment="kpoint 8">
       <r>   -4.4408    1.0000 </r>
       <r>   -1.0373    1.0000 </r>
       <r>    2.6568    1.0000 </r>
       <r>    2.6568    1.0000 </r>
       <r>    6.8837    0.0000 </r>
       <r>    7.6307    0.0000 </r>
       <r>   15.1777    0.0000 </r>
       <r>   15.1868    0.0000 </r>
      </set>
      <set comment="kpoint 9">
       <r>   -2.9288    1.0000 </r>
       <r>   -2.9287    1.0000 </r>
       <r>    2.3959    1.0000 </r>
       <r>    2.3959    1.0000 </r>
       <r>    7.0192    0.0000 </r>
       <r>    7.0192    0.0000 </r>
       <r>   16.9208    0.0000 </r>
       <r>   17.0277    0.0000 </r>
      </set>
      <set comment="kpoint 10">
       <r>   -2.9129    1.0000 </r>
       <r>   -2.9128    1.0000 </r>
       <r>    2.2941    1.0000 </r>
       <r>    2.2941    1.0000 </r>
       <r>    7.2376    0.0000 </r>
       <r>    7.2377    0.0000 </r>
       <r>   16.4053    0.0000 </r>
       <r>   16.7348    0.0000 </r>
      </set>
      <set comment="kpoint 11">
       <r>   -2.7671    1.0000 </r>
       <r>   -2.7670    1.0000 </r>
       <r>    2.1427    1.0000 </r>
       <r>    2.1427    1.0000 </r>
       <r>    7.8449    0.0000 </r>
       <r>    7.8453    0.0000 </r>
       <r>   15.1527    0.0000 </r>
       <r>   15.2549    0.0000 </r>
      </set>
      <set comment="kpoint 12">
       <r>   -2.6725    1.0000 </r>
       <r>   -2.6722    1.0000 </r>
       <r>    1.9000    1.0000 </r>
       <r>    1.9001    1.0000 </r>
       <r>    8.7215    0.0000 </r>
       <r>    8.7259    0.0000 </r>
       <r>   13.7766    0.0000 </r>
       <r>   13.9711    0.0000 </r>
      </set>
      <set comment="kpoint 13">
       <r>   -2.5951    1.0000 </r>
       <r>   -2.5950    1.0000 </r>
       <r>    1.7189    1.0000 </r>
       <r>    1.7190    1.0000 </r>
       <r>    9.7601    0.0000 </r>
       <r>    9.7684    0.0000 </r>
       <r>   12.4450    0.0000 </r>
       <r>   12.5033    0.0000 </r>
      </set>
      <set comment="kpoint 14">
       <r>   -2.5650    1.0000 </r>
       <r>   -2.5649    1.0000 </r>
       <r>    1.6527    1.0000 </r>
       <r>    1.6527    1.0000 </r>
       <r>   10.5917    0.0000 </r>
       <r>   10.6011    0.0000 </r>
       <r>   11.5213    0.0000 </r>
       <r>   11.5603    0.0000 </r>
      </set>
      <set comment="kpoint 15">
       <r>   -2.7974    1.0000 </r>
       <r>   -2.3572    1.0000 </r>
       <r>    1.4828    1.0000 </r>
       <r>    1.8926    1.0000 </r>
       <r>    9.9113    0.0000 </r>
       <r>   10.6632    0.0000 </r>
       <r>   11.8770    0.0000 </r>
       <r>   11.9237    0.0000 </r>
      </set>
      <set comment="kpoint 16">
       <r>   -2.9858    1.0000 </r>
       <r>   -2.2326    1.0000 </r>
       <r>    1.3405    1.0000 </r>
       <r>    2.2252    1.0000 </r>
       <r>    9.0338    0.0000 </r>
       <r>   10.6129    0.0000 </r>
       <r>   12.4356    0.0000 </r>
       <r>   12.6121    0.0000 </r>
      </set>
      <set comment="kpoint 17">
       <r>   -3.1255    1.0000 </r>
       <r>   -2.1690    1.0000 </r>
       <r>    1.2326    1.0000 </r>
       <r>    2.5905    1.0000 </r>
       <r>    8.2736    0.0000 </r>
       <r>   10.5492    0.0000 </r>
       <r>   13.0626    0.0000 </r>
       <r>   13.4170    0.0000 </r>
      </set>
      <set comment="kpoint 18">
       <r>   -3.2122    1.0000 </r>
       <r>   -2.1426    1.0000 </r>
       <r>    1.1650    1.0000 </r>
       <r>    2.8925    1.0000 </r>
       <r>    7.7374    0.0000 </r>
       <r>   10.5002    0.0000 </r>
       <r>   13.6874    0.0000 </r>
       <r>   14.3407    0.0000 </r>
      </set>
      <set comment="kpoint 19">
       <r>   -3.2415    1.0000 </r>
       <r>   -2.1358    1.0000 </r>
       <r>    1.1420    1.0000 </r>
       <r>    3.0141    1.0000 </r>
       <r>    7.5385    0.0000 </r>
       <r>   10.4847    0.0000 </r>
       <r>   14.1386    0.0000 </r>
       <r>   14.6705    0.0000 </r>
      </set>
      <set comment="kpoint 20">
       <r>   -4.3010    1.0000 </r>
       <r>   -1.1455    1.0000 </r>
       <r>    1.1771    1.0000 </r>
       <r>    3.6549    1.0000 </r>
       <r>    8.2839    0.0000 </r>
       <r>   12.3600    0.0000 </r>
       <r>   12.4326    0.0000 </r>
       <r>   13.4495    0.0000 </r>
      </set>
      <set comment="kpoint 21">
       <r>   -5.6321    1.0000 </r>
       <r>    0.2207    1.0000 </r>
       <r>    2.0367    1.0000 </r>
       <r>    4.3266    1.0000 </r>
       <r>    9.1403    0.0000 </r>
       <r>   10.9001    0.0000 </r>
       <r>   10.9735    0.0000 </r>
       <r>   12.4004    0.0000 </r>
      </set>
      <set comment="kpoint 22">
       <r>   -6.8624    1.0000 </r>
       <r>    1.8869    1.0000 </r>
       <r>    3.2445    1.0000 </r>
       <r>    4.7391    1.0000 </r>
       <r>    9.5687    0.0000 </r>
       <r>    9.7823    0.0000 </r>
       <r>    9.8764    0.0000 </r>
       <r>   12.1208    0.0000 </r>
      </set>
      <set comment="kpoint 23">
       <r>   -7.8885    1.0000 </r>
       <r>    3.5572    1.0000 </r>
       <r>    4.1971    1.0000 </r>
       <r>    4.6450    1.0000 </r>
       <r>    9.1335    0.0000 </r>
       <r>    9.2838    0.0000 </r>
       <r>    9.3959    0.0000 </r>
       <r>   11.1464    0.0000 </r>
      </set>
      <set comment="kpoint 24">
       <r>   -7.4913    1.0000 </r>
       <r>    5.3138    1.0000 </r>
       <r>    5.3138    1.0000 </r>
       <r>    5.3301    1.0000 </r>
       <r>    9.0302    0.0000 </r>
       <r>    9.0440    0.0000 </r>
       <r>    9.0440    0.0000 </r>
       <r>   10.1849    0.0000 </r>
      </set>
     </set>
    </set>
   </array>
  </eigenvalues>
  <separator name="orbital magnetization" >
   <v name="MAGDIPOLOUT">      0.00000000      0.00000000      0.00000000</v>
  </separator>
  <dos>
   <i name="efermi">      5.56598136 </i>
   <total>
    <array>
     <dimension dim="1">gridpoints</dimension>
     <dimension dim="2">spin</dimension>
     <field>energy</field>
     <field>total</field>
     <field>integrated</field>
     <set>
      <set comment="spin 1">
       <r>    -9.1800     0.0000     0.0000 </r>
       <r>    -9.0885     0.0000     0.0000 </r>
       <r>    -8.9969     0.0000     0.0000 </r>
       <r>    -8.9054     0.0000     0.0000 </r>
       <r>    -8.8139     0.0000     0.0000 </r>
       <r>    -8.7224     0.0000     0.0000 </r>
       <r>    -8.6309     0.0000     0.0000 </r>
       <r>    -8.5394     0.0000     0.0000 </r>
       <r>    -8.4478     0.0000     0.0000 </r>
       <r>    -8.3563     0.0000     0.0000 </r>
       <r>    -8.2648     0.0000     0.0000 </r>
       <r>    -8.1733     0.0000     0.0000 </r>
       <r>    -8.0818     0.0000     0.0000 </r>
       <r>    -7.9902     0.0000     0.0000 </r>
       <r>    -7.8987     0.0000     0.0000 </r>
       <r>    -7.8072     0.0000     0.0000 </r>
       <r>    -7.7157     0.0000     0.0000 </r>
       <r>    -7.6242     0.0005     0.0000 </r>
       <r>    -7.5326     0.6642     0.0608 </r>
       <r>    -7.4411     4.3750     0.4612 </r>
       <r>    -7.3496     0.4234     0.5000 </r>
       <r>    -7.2581     0.0002     0.5000 </r>
       <r>    -7.1666     0.0000     0.5000 </r>
       <r>    -7.0751     0.0000     0.5000 </r>
       <r>    -6.9835     0.0000     0.5000 </r>
       <r>    -6.8920     0.0000     0.5000 </r>
       <r>    -6.8005     0.0000     0.5000 </r>
       <r>    -6.7090     0.0000     0.5000 </r>
       <r>    -6.6175     0.0000     0.5000 </r>
       <r>    -6.5259     0.0000     0.5000 </r>
       <r>    -6.4344     0.0000     0.5000 </r>
       <r>    -6.3429     0.0000     0.5000 </r>
       <r>    -6.2514     0.0000     0.5000 </r>
       <r>    -6.1599     0.0000     0.5000 </r>
       <r>    -6.0683     0.0000     0.5000 </r>
       <r>    -5.9768     0.0000     0.5000 </r>
       <r>    -5.8853     0.0000     0.5000 </r>
       <r>    -5.7938     0.0000     0.5000 </r>
       <r>    -5.7023     0.0000     0.5000 </r>
       <r>    -5.6108     0.0000     0.5000 </r>
       <r>    -5.5192     0.0000     0.5000 </r>
       <r>    -5.4277     0.0000     0.5000 </r>
       <r>    -5.3362     0.0000     0.5000 </r>
       <r>    -5.2447     0.0000     0.5000 </r>
       <r>    -5.1532     0.0000     0.5000 </r>
       <r>    -5.0616     0.0002     0.5000 </r>
       <r>    -4.9701     0.6896     0.5631 </r>
       <r>    -4.8786     8.6561     1.3553 </r>
       <r>    -4.7871     1.5794     1.4999 </r>
       <r>    -4.6956     0.0014     1.5000 </r>
       <r>    -4.6040     0.0000     1.5000 </r>
       <r>    -4.5125     0.0000     1.5000 </r>
       <r>    -4.4210     0.0000     1.5000 </r>
       <r>    -4.3295     0.0000     1.5000 </r>
       <r>    -4.2380     0.0000     1.5000 </r>
       <r>    -4.1464     0.0000     1.5000 </r>
       <r>    -4.0549     0.0000     1.5000 </r>
       <r>    -3.9634     0.0000     1.5000 </r>
       <r>    -3.8719     0.0000     1.5000 </r>
       <r>    -3.7804     0.0000     1.5000 </r>
       <r>    -3.6889     0.0000     1.5000 </r>
       <r>    -3.5973     0.0000     1.5000 </r>
       <r>    -3.5058     0.0000     1.5000 </r>
       <r>    -3.4143     0.0000     1.5000 </r>
       <r>    -3.3228     0.0000     1.5000 </r>
       <r>    -3.2313     0.0000     1.5000 </r>
       <r>    -3.1397     0.0000     1.5000 </r>
       <r>    -3.0482     0.0040     1.5004 </r>
       <r>    -2.9567     2.3460     1.7151 </r>
       <r>    -2.8652     8.1838     2.4640 </r>
       <r>    -2.7737     0.3929     2.5000 </r>
       <r>    -2.6821     0.0001     2.5000 </r>
       <r>    -2.5906     0.0000     2.5000 </r>
       <r>    -2.4991     0.0000     2.5000 </r>
       <r>    -2.4076     0.0000     2.5000 </r>
       <r>    -2.3161     0.0000     2.5000 </r>
       <r>    -2.2246     0.0000     2.5000 </r>
       <r>    -2.1330     0.0000     2.5000 </r>
       <r>    -2.0415     0.3368     2.5308 </r>
       <r>    -1.9500     8.0130     3.2642 </r>
       <r>    -1.8585     2.5718     3.4995 </r>
       <r>    -1.7670     0.0051     3.5000 </r>
       <r>    -1.6754     0.0000     3.5000 </r>
       <r>    -1.5839     0.0000     3.5000 </r>
       <r>    -1.4924     0.0000     3.5000 </r>
       <r>    -1.4009     0.0000     3.5000 </r>
       <r>    -1.3094     0.0000     3.5000 </r>
       <r>    -1.2178     0.0000     3.5000 </r>
       <r>    -1.1263     0.0000     3.5000 </r>
       <r>    -1.0348     0.0000     3.5000 </r>
       <r>    -0.9433     0.0000     3.5000 </r>
       <r>    -0.8518     0.0000     3.5000 </r>
       <r>    -0.7603     0.0000     3.5000 </r>
       <r>    -0.6687     0.0000     3.5000 </r>
       <r>    -0.5772     0.0000     3.5000 </r>
       <r>    -0.4857     0.0000     3.5000 </r>
       <r>    -0.3942     0.0000     3.5000 </r>
       <r>    -0.3027     0.0000     3.5000 </r>
       <r>    -0.2111     0.0000     3.5000 </r>
       <r>    -0.1196     0.0000     3.5000 </r>
       <r>    -0.0281     0.0000     3.5000 </r>
       <r>     0.0634     0.0000     3.5000 </r>
       <r>     0.1549     0.0000     3.5000 </r>
       <r>     0.2465     0.0000     3.5000 </r>
       <r>     0.3380     0.0000     3.5000 </r>
       <r>     0.4295     0.0000     3.5000 </r>
       <r>     0.5210     0.0000     3.5000 </r>
       <r>     0.6125     0.0000     3.5000 </r>
       <r>     0.7040     0.0000     3.5000 </r>
       <r>     0.7956     0.0000     3.5000 </r>
       <r>     0.8871     0.0000     3.5000 </r>
       <r>     0.9786     0.0000     3.5000 </r>
       <r>     1.0701     0.0000     3.5000 </r>
       <r>     1.1616     0.0000     3.5000 </r>
       <r>     1.2532     0.0000     3.5000 </r>
       <r>     1.3447     0.0000     3.5000 </r>
       <r>     1.4362     0.0000     3.5000 </r>
       <r>     1.5277     0.0000     3.5000 </r>
       <r>     1.6192     0.0000     3.5000 </r>
       <r>     1.7108     0.0000     3.5000 </r>
       <r>     1.8023     0.0000     3.5000 </r>
       <r>     1.8938     0.0000     3.5000 </r>
       <r>     1.9853     0.0000     3.5000 </r>
       <r>     2.0768     0.0000     3.5000 </r>
       <r>     2.1683     0.0000     3.5000 </r>
       <r>     2.2599     0.0007     3.5001 </r>
       <r>     2.3514     1.1349     3.6039 </r>
       <r>     2.4429     8.7868     4.4081 </r>
       <r>     2.5344     1.0038     4.5000 </r>
       <r>     2.6259     0.0005     4.5000 </r>
       <r>     2.7175     0.0000     4.5000 </r>
       <r>     2.8090     0.0000     4.5000 </r>
       <r>     2.9005     0.0000     4.5000 </r>
       <r>     2.9920     0.0000     4.5000 </r>
       <r>     3.0835     0.0000     4.5000 </r>
       <r>     3.1751     0.0000     4.5000 </r>
       <r>     3.2666     0.0000     4.5000 </r>
       <r>     3.3581     0.0000     4.5000 </r>
       <r>     3.4496     0.0000     4.5000 </r>
       <r>     3.5411     0.0000     4.5000 </r>
       <r>     3.6326     0.0000     4.5000 </r>
       <r>     3.7242     0.0000     4.5000 </r>
       <r>     3.8157     0.0000     4.5000 </r>
       <r>     3.9072     0.0000     4.5000 </r>
       <r>     3.9987     0.0261     4.5024 </r>
       <r>     4.0902     7.1198     5.1540 </r>
       <r>     4.1818    14.3542     6.4677 </r>
       <r>     4.2733     0.3532     6.5000 </r>
       <r>     4.3648     0.0000     6.5000 </r>
       <r>     4.4563     0.0000     6.5000 </r>
       <r>     4.5478     0.0000     6.5000 </r>
       <r>     4.6394     0.0000     6.5000 </r>
       <r>     4.7309     0.0000     6.5000 </r>
       <r>     4.8224     0.0000     6.5000 </r>
       <r>     4.9139     0.0000     6.5000 </r>
       <r>     5.0054     0.0000     6.5000 </r>
       <r>     5.0969     0.0000     6.5000 </r>
       <r>     5.1885     0.0043     6.5004 </r>
       <r>     5.2800     3.0926     6.7834 </r>
       <r>     5.3715    12.5732     7.9341 </r>
       <r>     5.4630     0.7199     8.0000 </r>
       <r>     5.5545     0.0001     8.0000 </r>
       <r>     5.6461     0.0000     8.0000 </r>
       <r>     5.7376     0.0000     8.0000 </r>
       <r>     5.8291     0.0000     8.0000 </r>
       <r>     5.9206     0.0000     8.0000 </r>
       <r>     6.0121     0.0000     8.0000 </r>
       <r>     6.1037     0.0000     8.0000 </r>
       <r>     6.1952     0.0000     8.0000 </r>
       <r>     6.2867     0.0000     8.0000 </r>
       <r>     6.3782     0.0000     8.0000 </r>
       <r>     6.4697     0.0000     8.0000 </r>
       <r>     6.5612     0.0000     8.0000 </r>
       <r>     6.6528     0.0000     8.0000 </r>
       <r>     6.7443     0.0000     8.0000 </r>
       <r>     6.8358     0.0000     8.0000 </r>
       <r>     6.9273     0.0513     8.0047 </r>
       <r>     7.0188     5.3732     8.4964 </r>
       <r>     7.1104     5.4481     8.9951 </r>
       <r>     7.2019     0.0540     9.0000 </r>
       <r>     7.2934     0.0000     9.0000 </r>
       <r>     7.3849     0.0000     9.0000 </r>
       <r>     7.4764     0.0000     9.0000 </r>
       <r>     7.5680     0.0000     9.0000 </r>
       <r>     7.6595     0.0000     9.0000 </r>
       <r>     7.7510     0.0000     9.0000 </r>
       <r>     7.8425     0.0012     9.0001 </r>
       <r>     7.9340     1.4890     9.1364 </r>
       <r>     8.0255     8.6949     9.9321 </r>
       <r>     8.1171     0.7414    10.0000 </r>
       <r>     8.2086     0.0002    10.0000 </r>
       <r>     8.3001     0.0000    10.0000 </r>
       <r>     8.3916     0.0000    10.0000 </r>
       <r>     8.4831     0.0000    10.0000 </r>
       <r>     8.5747     0.0000    10.0000 </r>
       <r>     8.6662     0.0000    10.0000 </r>
       <r>     8.7577     0.0000    10.0000 </r>
       <r>     8.8492     0.0000    10.0000 </r>
       <r>     8.9407     0.0953    10.0087 </r>
       <r>     9.0323     8.5265    10.7891 </r>
       <r>     9.1238     7.7030    11.4940 </r>
       <r>     9.2153     0.0652    11.5000 </r>
       <r>     9.3068     0.0000    11.5000 </r>
       <r>     9.3983     0.0000    11.5000 </r>
       <r>     9.4898     0.0000    11.5000 </r>
       <r>     9.5814     0.0000    11.5000 </r>
       <r>     9.6729     0.0023    11.5002 </r>
       <r>     9.7644     2.8580    11.7618 </r>
       <r>     9.8559    17.4355    13.3574 </r>
       <r>     9.9474     1.8859    13.5300 </r>
       <r>    10.0390     4.3142    13.9249 </r>
       <r>    10.1305     0.8202    13.9999 </r>
       <r>    10.2220     0.0008    14.0000 </r>
       <r>    10.3135     0.0000    14.0000 </r>
       <r>    10.4050     0.0000    14.0000 </r>
       <r>    10.4966     0.0000    14.0000 </r>
       <r>    10.5881     0.0000    14.0000 </r>
       <r>    10.6796     0.0000    14.0000 </r>
       <r>    10.7711     0.0000    14.0000 </r>
       <r>    10.8626     0.0000    14.0000 </r>
       <r>    10.9541     0.0000    14.0000 </r>
       <r>    11.0457     0.0000    14.0000 </r>
       <r>    11.1372     0.0000    14.0000 </r>
       <r>    11.2287     0.0000    14.0000 </r>
       <r>    11.3202     0.0000    14.0000 </r>
       <r>    11.4117     0.0000    14.0000 </r>
       <r>    11.5033     0.0000    14.0000 </r>
       <r>    11.5948     0.0000    14.0000 </r>
       <r>    11.6863     0.0000    14.0000 </r>
       <r>    11.7778     0.0000    14.0000 </r>
       <r>    11.8693     0.0000    14.0000 </r>
       <r>    11.9609     0.0000    14.0000 </r>
       <r>    12.0524     0.0000    14.0000 </r>
       <r>    12.1439     0.0000    14.0000 </r>
       <r>    12.2354     0.0000    14.0000 </r>
       <r>    12.3269     0.0000    14.0000 </r>
       <r>    12.4185     0.0000    14.0000 </r>
       <r>    12.5100     0.0000    14.0000 </r>
       <r>    12.6015     0.0000    14.0000 </r>
       <r>    12.6930     0.0000    14.0000 </r>
       <r>    12.7845     0.0000    14.0000 </r>
       <r>    12.8760     0.0000    14.0000 </r>
       <r>    12.9676     0.0000    14.0000 </r>
       <r>    13.0591     0.0000    14.0000 </r>
       <r>    13.1506     0.0000    14.0000 </r>
       <r>    13.2421     0.0000    14.0000 </r>
       <r>    13.3336     0.0000    14.0000 </r>
       <r>    13.4252     0.0000    14.0000 </r>
       <r>    13.5167     0.0000    14.0000 </r>
       <r>    13.6082     0.0000    14.0000 </r>
       <r>    13.6997     0.0000    14.0000 </r>
       <r>    13.7912     0.0000    14.0000 </r>
       <r>    13.8828     0.0000    14.0000 </r>
       <r>    13.9743     0.0025    14.0002 </r>
       <r>    14.0658     1.9628    14.1799 </r>
       <r>    14.1573     8.4457    14.9528 </r>
       <r>    14.2488     0.5156    15.0000 </r>
       <r>    14.3403     0.0001    15.0000 </r>
       <r>    14.4319     0.0000    15.0000 </r>
       <r>    14.5234     0.0000    15.0000 </r>
       <r>    14.6149     0.0000    15.0000 </r>
       <r>    14.7064     0.0000    15.0000 </r>
       <r>    14.7979     0.0000    15.0000 </r>
       <r>    14.8895     0.0000    15.0000 </r>
       <r>    14.9810     0.0000    15.0000 </r>
       <r>    15.0725     0.0000    15.0000 </r>
       <r>    15.1640     0.0000    15.0000 </r>
       <r>    15.2555     0.0000    15.0000 </r>
       <r>    15.3471     0.0000    15.0000 </r>
       <r>    15.4386     0.0000    15.0000 </r>
       <r>    15.5301     0.0000    15.0000 </r>
       <r>    15.6216     0.0000    15.0000 </r>
       <r>    15.7131     0.0000    15.0000 </r>
       <r>    15.8046     0.0000    15.0000 </r>
       <r>    15.8962     0.0000    15.0000 </r>
       <r>    15.9877     0.0000    15.0000 </r>
       <r>    16.0792     0.0000    15.0000 </r>
       <r>    16.1707     0.0000    15.0000 </r>
       <r>    16.2622     0.0000    15.0000 </r>
       <r>    16.3538     0.0000    15.0000 </r>
       <r>    16.4453     0.0000    15.0000 </r>
       <r>    16.5368     0.0000    15.0000 </r>
       <r>    16.6283     0.0000    15.0000 </r>
       <r>    16.7198     0.0000    15.0000 </r>
       <r>    16.8114     0.0410    15.0038 </r>
       <r>    16.9029     5.0518    15.4661 </r>
       <r>    16.9944     5.7668    15.9939 </r>
       <r>    17.0859     0.0672    16.0000 </r>
       <r>    17.1774     0.0000    16.0000 </r>
       <r>    17.2689     0.0000    16.0000 </r>
       <r>    17.3605     0.0000    16.0000 </r>
       <r>    17.4520     0.0000    16.0000 </r>
       <r>    17.5435     0.0000    16.0000 </r>
       <r>    17.6350     0.0000    16.0000 </r>
       <r>    17.7265     0.0000    16.0000 </r>
       <r>    17.8181     0.0000    16.0000 </r>
       <r>    17.9096     0.0000    16.0000 </r>
       <r>    18.0011     0.0000    16.0000 </r>
       <r>    18.0926     0.0000    16.0000 </r>
       <r>    18.1841     0.0000    16.0000 </r>
       <r>    18.2757     0.0000    16.0000 </r>
      </set>
     </set>
    </array>
   </total>
  </dos>
 </calculation>
 <structure name="finalpos" >
  <crystal>
   <varray name="basis" >
    <v>       3.34892024       0.00000000       1.93350000 </v>
    <v>       1.11630674       3.15739228       1.93350000 </v>
    <v>       0.00000000       0.00000000       3.86700000 </v>
   </varray>
   <i name="volume">     40.88909687 </i>
   <varray name="rec_basis" >
    <v>       0.29860371      -0.10557235       0.00000000 </v>
    <v>       0.00000000       0.31671706       0.00000000 </v>
    <v>      -0.14930185      -0.10557235       0.25859840 </v>
   </varray>
  </crystal>
  <varray name="positions" >
   <v>       0.00000000       0.00000000       0.00000000 </v>
   <v>       0.25000000       0.25000000       0.25000000 </v>
  </varray>
 </structure>
</modeling>
