# vtk DataFile Version 3.0
FrameWeb3 VTK Output
ASCII
DATASET UNSTRUCTURED_GRID
POINTS 620 float
0.0 0.0 0.0
5.0 0.0 0.0
10.0 0.0 0.0
15.0 0.0 0.0
20.0 0.0 0.0
25.0 0.0 0.0
30.0 0.0 0.0
35.0 0.0 0.0
40.0 0.0 0.0
45.0 0.0 0.0
50.0 0.0 0.0
55.0 0.0 0.0
60.0 0.0 0.0
65.0 0.0 0.0
70.0 0.0 0.0
75.0 0.0 0.0
80.0 0.0 0.0
85.0 0.0 0.0
90.0 0.0 0.0
95.0 0.0 0.0
100.0 0.0 0.0
0.0 5.0 0.0
5.0 5.0 0.0
10.0 5.0 0.0
15.0 5.0 0.0
20.0 5.0 0.0
25.0 5.0 0.0
30.0 5.0 0.0
35.0 5.0 0.0
40.0 5.0 0.0
45.0 5.0 0.0
50.0 5.0 0.0
55.0 5.0 0.0
60.0 5.0 0.0
65.0 5.0 0.0
70.0 5.0 0.0
75.0 5.0 0.0
80.0 5.0 0.0
85.0 5.0 0.0
90.0 5.0 0.0
95.0 5.0 0.0
100.0 5.0 0.0
0.0 10.0 0.0
5.0 10.0 0.0
10.0 10.0 0.0
15.0 10.0 0.0
20.0 10.0 0.0
25.0 10.0 0.0
30.0 10.0 0.0
35.0 10.0 0.0
40.0 10.0 0.0
45.0 10.0 0.0
50.0 10.0 0.0
55.0 10.0 0.0
60.0 10.0 0.0
65.0 10.0 0.0
70.0 10.0 0.0
75.0 10.0 0.0
80.0 10.0 0.0
85.0 10.0 0.0
90.0 10.0 0.0
95.0 10.0 0.0
100.0 10.0 0.0
0.0 15.0 0.0
5.0 15.0 0.0
10.0 15.0 0.0
15.0 15.0 0.0
20.0 15.0 0.0
25.0 15.0 0.0
30.0 15.0 0.0
35.0 15.0 0.0
40.0 15.0 0.0
45.0 15.0 0.0
50.0 15.0 0.0
55.0 15.0 0.0
60.0 15.0 0.0
65.0 15.0 0.0
70.0 15.0 0.0
75.0 15.0 0.0
80.0 15.0 0.0
85.0 15.0 0.0
90.0 15.0 0.0
95.0 15.0 0.0
100.0 15.0 0.0
0.0 20.0 0.0
5.0 20.0 0.0
10.0 20.0 0.0
15.0 20.0 0.0
20.0 20.0 0.0
25.0 20.0 0.0
30.0 20.0 0.0
35.0 20.0 0.0
40.0 20.0 0.0
45.0 20.0 0.0
50.0 20.0 0.0
55.0 20.0 0.0
60.0 20.0 0.0
65.0 20.0 0.0
70.0 20.0 0.0
75.0 20.0 0.0
80.0 20.0 0.0
85.0 20.0 0.0
90.0 20.0 0.0
95.0 20.0 0.0
100.0 20.0 0.0
0.0 0.0 5.0
5.0 0.0 5.0
10.0 0.0 5.0
15.0 0.0 5.0
20.0 0.0 5.0
25.0 0.0 5.0
30.0 0.0 5.0
35.0 0.0 5.0
40.0 0.0 5.0
45.0 0.0 5.0
50.0 0.0 5.0
55.0 0.0 5.0
60.0 0.0 5.0
65.0 0.0 5.0
70.0 0.0 5.0
75.0 0.0 5.0
80.0 0.0 5.0
85.0 0.0 5.0
90.0 0.0 5.0
95.0 0.0 5.0
100.0 0.0 5.0
0.0 5.0 5.0
5.0 5.0 5.0
10.0 5.0 5.0
15.0 5.0 5.0
20.0 5.0 5.0
25.0 5.0 5.0
30.0 5.0 5.0
35.0 5.0 5.0
40.0 5.0 5.0
45.0 5.0 5.0
50.0 5.0 5.0
55.0 5.0 5.0
60.0 5.0 5.0
65.0 5.0 5.0
70.0 5.0 5.0
75.0 5.0 5.0
80.0 5.0 5.0
85.0 5.0 5.0
90.0 5.0 5.0
95.0 5.0 5.0
100.0 5.0 5.0
0.0 10.0 5.0
5.0 10.0 5.0
10.0 10.0 5.0
15.0 10.0 5.0
20.0 10.0 5.0
25.0 10.0 5.0
30.0 10.0 5.0
35.0 10.0 5.0
40.0 10.0 5.0
45.0 10.0 5.0
50.0 10.0 5.0
55.0 10.0 5.0
60.0 10.0 5.0
65.0 10.0 5.0
70.0 10.0 5.0
75.0 10.0 5.0
80.0 10.0 5.0
85.0 10.0 5.0
90.0 10.0 5.0
95.0 10.0 5.0
100.0 10.0 5.0
0.0 15.0 5.0
5.0 15.0 5.0
10.0 15.0 5.0
15.0 15.0 5.0
20.0 15.0 5.0
25.0 15.0 5.0
30.0 15.0 5.0
35.0 15.0 5.0
40.0 15.0 5.0
45.0 15.0 5.0
50.0 15.0 5.0
55.0 15.0 5.0
60.0 15.0 5.0
65.0 15.0 5.0
70.0 15.0 5.0
75.0 15.0 5.0
80.0 15.0 5.0
85.0 15.0 5.0
90.0 15.0 5.0
95.0 15.0 5.0
100.0 15.0 5.0
0.0 20.0 5.0
5.0 20.0 5.0
10.0 20.0 5.0
15.0 20.0 5.0
20.0 20.0 5.0
25.0 20.0 5.0
30.0 20.0 5.0
35.0 20.0 5.0
40.0 20.0 5.0
45.0 20.0 5.0
50.0 20.0 5.0
55.0 20.0 5.0
60.0 20.0 5.0
65.0 20.0 5.0
70.0 20.0 5.0
75.0 20.0 5.0
80.0 20.0 5.0
85.0 20.0 5.0
90.0 20.0 5.0
95.0 20.0 5.0
100.0 20.0 5.0
0.0 0.0 10.0
5.0 0.0 10.0
10.0 0.0 10.0
15.0 0.0 10.0
20.0 0.0 10.0
25.0 0.0 10.0
30.0 0.0 10.0
35.0 0.0 10.0
40.0 0.0 10.0
45.0 0.0 10.0
50.0 0.0 10.0
55.0 0.0 10.0
60.0 0.0 10.0
65.0 0.0 10.0
70.0 0.0 10.0
75.0 0.0 10.0
80.0 0.0 10.0
85.0 0.0 10.0
90.0 0.0 10.0
95.0 0.0 10.0
100.0 0.0 10.0
0.0 5.0 10.0
5.0 5.0 10.0
10.0 5.0 10.0
15.0 5.0 10.0
20.0 5.0 10.0
25.0 5.0 10.0
30.0 5.0 10.0
35.0 5.0 10.0
40.0 5.0 10.0
45.0 5.0 10.0
50.0 5.0 10.0
55.0 5.0 10.0
60.0 5.0 10.0
65.0 5.0 10.0
70.0 5.0 10.0
75.0 5.0 10.0
80.0 5.0 10.0
85.0 5.0 10.0
90.0 5.0 10.0
95.0 5.0 10.0
100.0 5.0 10.0
0.0 10.0 10.0
5.0 10.0 10.0
10.0 10.0 10.0
15.0 10.0 10.0
20.0 10.0 10.0
25.0 10.0 10.0
30.0 10.0 10.0
35.0 10.0 10.0
40.0 10.0 10.0
45.0 10.0 10.0
50.0 10.0 10.0
55.0 10.0 10.0
60.0 10.0 10.0
65.0 10.0 10.0
70.0 10.0 10.0
75.0 10.0 10.0
80.0 10.0 10.0
85.0 10.0 10.0
90.0 10.0 10.0
95.0 10.0 10.0
100.0 10.0 10.0
0.0 15.0 10.0
5.0 15.0 10.0
10.0 15.0 10.0
15.0 15.0 10.0
20.0 15.0 10.0
25.0 15.0 10.0
30.0 15.0 10.0
35.0 15.0 10.0
40.0 15.0 10.0
45.0 15.0 10.0
50.0 15.0 10.0
55.0 15.0 10.0
60.0 15.0 10.0
65.0 15.0 10.0
70.0 15.0 10.0
75.0 15.0 10.0
80.0 15.0 10.0
85.0 15.0 10.0
90.0 15.0 10.0
95.0 15.0 10.0
100.0 15.0 10.0
0.0 20.0 10.0
5.0 20.0 10.0
10.0 20.0 10.0
15.0 20.0 10.0
20.0 20.0 10.0
25.0 20.0 10.0
30.0 20.0 10.0
35.0 20.0 10.0
40.0 20.0 10.0
45.0 20.0 10.0
50.0 20.0 10.0
55.0 20.0 10.0
60.0 20.0 10.0
65.0 20.0 10.0
70.0 20.0 10.0
75.0 20.0 10.0
80.0 20.0 10.0
85.0 20.0 10.0
90.0 20.0 10.0
95.0 20.0 10.0
100.0 20.0 10.0
0.0 0.0 15.0
5.0 0.0 15.0
10.0 0.0 15.0
15.0 0.0 15.0
20.0 0.0 15.0
25.0 0.0 15.0
30.0 0.0 15.0
35.0 0.0 15.0
40.0 0.0 15.0
45.0 0.0 15.0
50.0 0.0 15.0
55.0 0.0 15.0
60.0 0.0 15.0
65.0 0.0 15.0
70.0 0.0 15.0
75.0 0.0 15.0
80.0 0.0 15.0
85.0 0.0 15.0
90.0 0.0 15.0
95.0 0.0 15.0
100.0 0.0 15.0
0.0 5.0 15.0
5.0 5.0 15.0
10.0 5.0 15.0
15.0 5.0 15.0
20.0 5.0 15.0
25.0 5.0 15.0
30.0 5.0 15.0
35.0 5.0 15.0
40.0 5.0 15.0
45.0 5.0 15.0
50.0 5.0 15.0
55.0 5.0 15.0
60.0 5.0 15.0
65.0 5.0 15.0
70.0 5.0 15.0
75.0 5.0 15.0
80.0 5.0 15.0
85.0 5.0 15.0
90.0 5.0 15.0
95.0 5.0 15.0
100.0 5.0 15.0
0.0 10.0 15.0
5.0 10.0 15.0
10.0 10.0 15.0
15.0 10.0 15.0
20.0 10.0 15.0
25.0 10.0 15.0
30.0 10.0 15.0
35.0 10.0 15.0
40.0 10.0 15.0
45.0 10.0 15.0
50.0 10.0 15.0
55.0 10.0 15.0
60.0 10.0 15.0
65.0 10.0 15.0
70.0 10.0 15.0
75.0 10.0 15.0
80.0 10.0 15.0
85.0 10.0 15.0
90.0 10.0 15.0
95.0 10.0 15.0
100.0 10.0 15.0
0.0 15.0 15.0
5.0 15.0 15.0
10.0 15.0 15.0
15.0 15.0 15.0
20.0 15.0 15.0
25.0 15.0 15.0
30.0 15.0 15.0
35.0 15.0 15.0
40.0 15.0 15.0
45.0 15.0 15.0
50.0 15.0 15.0
55.0 15.0 15.0
60.0 15.0 15.0
65.0 15.0 15.0
70.0 15.0 15.0
75.0 15.0 15.0
80.0 15.0 15.0
85.0 15.0 15.0
90.0 15.0 15.0
95.0 15.0 15.0
100.0 15.0 15.0
0.0 20.0 15.0
5.0 20.0 15.0
10.0 20.0 15.0
15.0 20.0 15.0
20.0 20.0 15.0
25.0 20.0 15.0
30.0 20.0 15.0
35.0 20.0 15.0
40.0 20.0 15.0
45.0 20.0 15.0
50.0 20.0 15.0
55.0 20.0 15.0
60.0 20.0 15.0
65.0 20.0 15.0
70.0 20.0 15.0
75.0 20.0 15.0
80.0 20.0 15.0
85.0 20.0 15.0
90.0 20.0 15.0
95.0 20.0 15.0
100.0 20.0 15.0
80.0 25.0 0.0
85.0 25.0 0.0
90.0 25.0 0.0
95.0 25.0 0.0
100.0 25.0 0.0
80.0 30.0 0.0
85.0 30.0 0.0
90.0 30.0 0.0
95.0 30.0 0.0
100.0 30.0 0.0
80.0 35.0 0.0
85.0 35.0 0.0
90.0 35.0 0.0
95.0 35.0 0.0
100.0 35.0 0.0
80.0 40.0 0.0
85.0 40.0 0.0
90.0 40.0 0.0
95.0 40.0 0.0
100.0 40.0 0.0
80.0 45.0 0.0
85.0 45.0 0.0
90.0 45.0 0.0
95.0 45.0 0.0
100.0 45.0 0.0
80.0 50.0 0.0
85.0 50.0 0.0
90.0 50.0 0.0
95.0 50.0 0.0
100.0 50.0 0.0
80.0 55.0 0.0
85.0 55.0 0.0
90.0 55.0 0.0
95.0 55.0 0.0
100.0 55.0 0.0
80.0 60.0 0.0
85.0 60.0 0.0
90.0 60.0 0.0
95.0 60.0 0.0
100.0 60.0 0.0
80.0 65.0 0.0
85.0 65.0 0.0
90.0 65.0 0.0
95.0 65.0 0.0
100.0 65.0 0.0
80.0 70.0 0.0
85.0 70.0 0.0
90.0 70.0 0.0
95.0 70.0 0.0
100.0 70.0 0.0
80.0 25.0 5.0
85.0 25.0 5.0
90.0 25.0 5.0
95.0 25.0 5.0
100.0 25.0 5.0
80.0 30.0 5.0
85.0 30.0 5.0
90.0 30.0 5.0
95.0 30.0 5.0
100.0 30.0 5.0
80.0 35.0 5.0
85.0 35.0 5.0
90.0 35.0 5.0
95.0 35.0 5.0
100.0 35.0 5.0
80.0 40.0 5.0
85.0 40.0 5.0
90.0 40.0 5.0
95.0 40.0 5.0
100.0 40.0 5.0
80.0 45.0 5.0
85.0 45.0 5.0
90.0 45.0 5.0
95.0 45.0 5.0
100.0 45.0 5.0
80.0 50.0 5.0
85.0 50.0 5.0
90.0 50.0 5.0
95.0 50.0 5.0
100.0 50.0 5.0
80.0 55.0 5.0
85.0 55.0 5.0
90.0 55.0 5.0
95.0 55.0 5.0
100.0 55.0 5.0
80.0 60.0 5.0
85.0 60.0 5.0
90.0 60.0 5.0
95.0 60.0 5.0
100.0 60.0 5.0
80.0 65.0 5.0
85.0 65.0 5.0
90.0 65.0 5.0
95.0 65.0 5.0
100.0 65.0 5.0
80.0 70.0 5.0
85.0 70.0 5.0
90.0 70.0 5.0
95.0 70.0 5.0
100.0 70.0 5.0
80.0 25.0 10.0
85.0 25.0 10.0
90.0 25.0 10.0
95.0 25.0 10.0
100.0 25.0 10.0
80.0 30.0 10.0
85.0 30.0 10.0
90.0 30.0 10.0
95.0 30.0 10.0
100.0 30.0 10.0
80.0 35.0 10.0
85.0 35.0 10.0
90.0 35.0 10.0
95.0 35.0 10.0
100.0 35.0 10.0
80.0 40.0 10.0
85.0 40.0 10.0
90.0 40.0 10.0
95.0 40.0 10.0
100.0 40.0 10.0
80.0 45.0 10.0
85.0 45.0 10.0
90.0 45.0 10.0
95.0 45.0 10.0
100.0 45.0 10.0
80.0 50.0 10.0
85.0 50.0 10.0
90.0 50.0 10.0
95.0 50.0 10.0
100.0 50.0 10.0
80.0 55.0 10.0
85.0 55.0 10.0
90.0 55.0 10.0
95.0 55.0 10.0
100.0 55.0 10.0
80.0 60.0 10.0
85.0 60.0 10.0
90.0 60.0 10.0
95.0 60.0 10.0
100.0 60.0 10.0
80.0 65.0 10.0
85.0 65.0 10.0
90.0 65.0 10.0
95.0 65.0 10.0
100.0 65.0 10.0
80.0 70.0 10.0
85.0 70.0 10.0
90.0 70.0 10.0
95.0 70.0 10.0
100.0 70.0 10.0
80.0 25.0 15.0
85.0 25.0 15.0
90.0 25.0 15.0
95.0 25.0 15.0
100.0 25.0 15.0
80.0 30.0 15.0
85.0 30.0 15.0
90.0 30.0 15.0
95.0 30.0 15.0
100.0 30.0 15.0
80.0 35.0 15.0
85.0 35.0 15.0
90.0 35.0 15.0
95.0 35.0 15.0
100.0 35.0 15.0
80.0 40.0 15.0
85.0 40.0 15.0
90.0 40.0 15.0
95.0 40.0 15.0
100.0 40.0 15.0
80.0 45.0 15.0
85.0 45.0 15.0
90.0 45.0 15.0
95.0 45.0 15.0
100.0 45.0 15.0
80.0 50.0 15.0
85.0 50.0 15.0
90.0 50.0 15.0
95.0 50.0 15.0
100.0 50.0 15.0
80.0 55.0 15.0
85.0 55.0 15.0
90.0 55.0 15.0
95.0 55.0 15.0
100.0 55.0 15.0
80.0 60.0 15.0
85.0 60.0 15.0
90.0 60.0 15.0
95.0 60.0 15.0
100.0 60.0 15.0
80.0 65.0 15.0
85.0 65.0 15.0
90.0 65.0 15.0
95.0 65.0 15.0
100.0 65.0 15.0
80.0 70.0 15.0
85.0 70.0 15.0
90.0 70.0 15.0
95.0 70.0 15.0
100.0 70.0 15.0
CELLS 360 3240
8 0 1 22 21 105 106 127 126
8 1 2 23 22 106 107 128 127
8 2 3 24 23 107 108 129 128
8 3 4 25 24 108 109 130 129
8 4 5 26 25 109 110 131 130
8 5 6 27 26 110 111 132 131
8 6 7 28 27 111 112 133 132
8 7 8 29 28 112 113 134 133
8 8 9 30 29 113 114 135 134
8 9 10 31 30 114 115 136 135
8 10 11 32 31 115 116 137 136
8 11 12 33 32 116 117 138 137
8 12 13 34 33 117 118 139 138
8 13 14 35 34 118 119 140 139
8 14 15 36 35 119 120 141 140
8 15 16 37 36 120 121 142 141
8 16 17 38 37 121 122 143 142
8 17 18 39 38 122 123 144 143
8 18 19 40 39 123 124 145 144
8 19 20 41 40 124 125 146 145
8 21 22 43 42 126 127 148 147
8 22 23 44 43 127 128 149 148
8 23 24 45 44 128 129 150 149
8 24 25 46 45 129 130 151 150
8 25 26 47 46 130 131 152 151
8 26 27 48 47 131 132 153 152
8 27 28 49 48 132 133 154 153
8 28 29 50 49 133 134 155 154
8 29 30 51 50 134 135 156 155
8 30 31 52 51 135 136 157 156
8 31 32 53 52 136 137 158 157
8 32 33 54 53 137 138 159 158
8 33 34 55 54 138 139 160 159
8 34 35 56 55 139 140 161 160
8 35 36 57 56 140 141 162 161
[...]
POINT_DATA 620
VECTORS displacement float
-6.519400280781945e-204 -7.398537864763736e-204 -3.106667520492327e-204
-5.671503769683416e-190 1.68427994590328e-188 8.966297949872739e-198
-1.9949981601256545e-181 -2.838803356896124e-181 -1.7401649013027247e-181
1.1515670298447355e-174 2.2827454842442912e-174 2.107409849379526e-175
-5.362173777130399e-168 -1.9710113635581786e-167 -1.729827080099217e-167
2.553299221554405e-160 2.99305505604622e-160 3.013800716679741e-161
8.474466459689981e-154 -1.129406300363483e-153 -1.4011259538937034e-153
3.5711663888749844e-146 3.5217790496570805e-146 6.988645646980063e-147
1.4930001392661604e-139 -6.138264280719002e-140 -8.099399930141047e-140
3.4565275648457924e-132 3.519917477384932e-132 1.2223158806382436e-132
6.119806130562012e-126 -7.26696170950412e-126 -2.62221593908907e-126
1.4977196668720572e-118 2.494656012247732e-118 1.2890676752651764e-118
-1.8292044566293292e-111 -1.8292701202157422e-111 -4.091684662340712e-112
3.809011732282416e-111 1.0909489515130536e-111 1.9728696898401092e-111
7.721449228439916e-111 1.4421740545773052e-110 7.631348399690188e-111
2.2216560240133223e-110 4.6259549903795525e-110 1.760691327290065e-110
2.1608416368871238e-110 9.052576994820715e-110 2.862753966662695e-110
1.8262168397012013e-110 1.2932241607173173e-109 3.642711040649695e-110
-3.1842118968993527e-111 1.4347321097855015e-109 3.860762660801256e-110
-2.2110815978486135e-110 1.1730069780898792e-109 3.1791534740181875e-110
-2.807445518886676e-110 4.954535723518604e-110 1.2836334845838361e-110
-3.506497334053005e-195 2.8835650611947475e-195 -7.599427381656944e-196
-4.0831378122124866e-188 -4.2619197153511494e-188 -1.8799997895459885e-188
-1.7805596409662748e-181 3.1209613115101527e-181 -1.482605627801101e-181
-1.6584845247882851e-174 -3.6504749370927015e-174 -2.301994986306557e-174
1.0627432042135337e-167 3.535085836703429e-167 -1.5877282969221004e-167
1.455065022948187e-160 -2.945016372530439e-160 -2.002828707979894e-160
4.0693156822086904e-153 3.971838718177469e-153 -9.29627479003255e-154
4.103221786757025e-146 -2.2841031502863514e-146 -9.730705834272102e-147
5.912792854770414e-139 4.330150993987545e-139 3.3692011096174356e-140
4.8241304583851836e-132 -1.6956393895987935e-132 4.202035655980973e-133
5.133158895326387e-125 4.572609072459038e-125 1.587148413939524e-125
2.355053271011228e-118 -1.3044103157024226e-118 1.2502664642387957e-118
1.1758843712667988e-111 3.889356744600578e-111 1.6793012116032544e-111
-2.672214024033279e-104 -2.674972974714107e-104 -3.398339093131475e-105
5.286619580738147e-104 2.0377748511183756e-104 4.458454962337887e-104
1.0316141188162522e-103 2.2659905527882046e-103 1.5802362609642434e-103
2.153194593177888e-103 6.120780899789538e-103 3.201179640309488e-103
1.3716279975427027e-103 1.018904863993151e-102 4.693302990825669e-103
8.208394347165505e-105 1.1820217255391306e-102 5.186050555544478e-103
-1.8188931475608646e-103 9.77032001898722e-103 4.369482683697736e-103
-2.1322761661276294e-103 3.7290390511463306e-103 1.7444520279585778e-103
-4.9522327614418734e-195 -4.263413097530947e-195 -1.2849458993630233e-195
-4.192827278654517e-188 4.188310021486494e-188 -1.8041343972592996e-188
-3.010629043010148e-181 -4.122278946590021e-181 -2.17959431852302e-181
-1.4952278994025905e-174 3.998942838857572e-174 -2.370292383011536e-174
2.265934545424964e-168 -4.019725064850104e-167 -2.3495581103289072e-167
2.007262537614538e-160 3.7926405075726526e-160 -2.1108572999511738e-160
3.678207322783047e-153 -3.9058821724417175e-153 -1.6644567374559933e-153
5.0901204814561025e-146 3.6924116436084486e-146 -1.0471999705674078e-146
6.081842457207413e-139 -3.560165056298629e-139 -3.0108685186121953e-140
6.598995335647031e-132 4.004636954046134e-132 4.995065955157677e-133
6.503420870989966e-125 -2.6700615252545335e-125 1.3175554029829648e-125
5.9282191129271885e-118 4.850998611034444e-118 2.0855803688733398e-118
4.247342329934329e-111 -1.4868193809472546e-111 2.602151750784068e-111
1.944901408260657e-104 5.123538701574523e-104 3.0954869110615166e-104
-3.859107339590563e-97 -3.8827047950774145e-97 5.79802742051634e-98
6.054943140869304e-97 3.5611630155070354e-97 1.098453345612738e-96
9.840027138898182e-97 3.1298486934522453e-96 3.184175988056783e-96
1.2859258355629981e-96 6.6555207400641115e-96 5.247786942771033e-96
2.913937790907985e-104 8.493507724322698e-96 6.24946275651134e-96
-1.1783854159471935e-96 6.754139097235218e-96 5.196327975832816e-96
-1.2286834796616567e-96 2.1023345271677742e-96 2.06444219462837e-96
-4.767995746432526e-195 4.486052646706711e-195 -1.4557160113987384e-195
-2.8052999349218394e-188 -2.9782267350900815e-188 -1.1591974008645524e-188
-3.013321017289521e-181 3.9600089653425854e-181 -2.1431131743934943e-181
-5.024595244427228e-175 -3.35577008477281e-174 -1.60092334391635e-174
-2.691673436925451e-168 3.236836039147127e-167 -2.243152507284104e-167
2.3499319420806588e-160 -3.84157672247041e-160 -1.3980470912560038e-160
2.538387297434508e-153 2.5466929882659776e-153 -1.7061640805699717e-153
4.809057102764484e-146 -4.154640161684618e-146 -6.199310674251843e-147
4.612052761770173e-139 2.2093508075576828e-139 -6.886338583857591e-140
6.355836142936893e-132 -4.001423454190797e-132 5.546767333580645e-133
5.794130527820478e-125 2.455798539725842e-125 7.091609586645501e-126
7.017095871597013e-118 -3.3155258479099934e-118 2.145024849451788e-118
6.202858541753985e-111 3.4260145808710264e-111 2.701533697144147e-111
6.240746089811216e-104 -2.0945887180451812e-104 4.5950521058852134e-104
3.6771727231313306e-97 5.223942835928096e-97 5.510090920454849e-97
-5.565113667001114e-90 -6.596344810116872e-90 5.0374998903050015e-90
4.6204541219007355e-90 2.485330174266921e-90 2.579836822598592e-89
3.994897613547416e-90 2.9752152586535907e-89 5.5791727845007746e-89
1.7234727079351264e-103 4.1437124107610944e-89 6.778183528938168e-89
-3.994897028012437e-90 2.97521527240403e-89 5.5791728465887615e-89
-1.7060207152414742e-90 2.07035205642048e-90 2.2078358622606365e-89
-4.428694481488248e-196 -1.5050863756007466e-195 6.09650071803048e-196
-2.5814561115339223e-188 3.192719028286903e-188 -1.6307023162530575e-188
4.8922614030534954e-182 -1.9605449652650513e-181 2.9999070310364996e-182
-1.3346509443319244e-174 2.4250648137117867e-174 -1.7562382884349086e-174
1.753814649876335e-167 -2.619339258973217e-167 2.2146871157696057e-168
1.3627236931960702e-162 1.5946166125567674e-160 -1.6391754117291775e-160
2.89779668674459e-153 -3.213520771773902e-153 3.812080631703523e-154
1.0541082430448167e-146 9.732493692607968e-147 -1.321199040712909e-146
3.641607880180254e-139 -3.5375716327327876e-139 7.228775723256681e-140
1.684455744808602e-132 7.002454384905655e-133 -8.573111782943227e-133
4.0404111331565105e-125 -3.6172421453168145e-125 1.28273871307175e-125
2.0013396579512857e-118 8.396443096614631e-119 -1.9460384288119245e-119
4.1700016432387014e-111 -3.588140792489054e-111 2.3680926616277212e-111
2.0197223617425257e-104 2.0271981858942898e-104 9.801033794680319e-105
4.796078007256601e-97 -3.3977135622966093e-97 5.286846844320876e-97
5.858654723985697e-90 3.151201690600226e-90 6.401957510983371e-90
-9.519334720563226e-83 -1.793655897898554e-82 2.152800501520252e-82
-4.513487101884539e-83 -1.2511272635774011e-82 5.462321933555408e-82
1.8338730613919558e-97 -7.872021312967146e-83 6.702664485363613e-82
4.5134871018850754e-83 -1.251127263577344e-82 5.462321933555485e-82
9.519336481551183e-83 -1.7936561125448645e-82 2.1528005005808582e-82
-4.399451884349792e-195 -5.314625965061094e-195 1.7561361062154195e-195
1.668082372891257e-188 3.532235911270038e-188 -1.0695817973832615e-188
-2.9235259012440373e-181 -4.3272446520004546e-181 -8.162825261731682e-183
3.2221459741533857e-174 4.332765065710945e-174 -2.9132727889598146e-174
-1.103682601425683e-167 -3.168969708479988e-167 -1.812097790521331e-167
4.746878808293815e-160 5.134208716934468e-160 -4.203738100603665e-160
3.561606931491786e-154 -2.1900705416516207e-153 -2.6352141476220185e-153
5.557868159283242e-146 5.558747331206603e-146 -4.266100449533256e-146
7.605376687705621e-140 -1.728350684728282e-139 -1.9816060627054806e-139
4.9309192263784955e-132 5.221998737437869e-132 -2.712542473446851e-132
-4.855960119096855e-126 -1.9946822346326885e-125 1.8414183110543484e-126
2.37642575812722e-118 3.694892485291828e-118 -9.585063997830952e-120
-2.913325272060834e-111 -2.913453393955312e-111 2.134047078320475e-111
5.676224611704859e-111 7.889513173144225e-112 3.369514805144956e-111
4.613118599747618e-111 1.190313884746467e-110 6.509267006695098e-112
2.4798397818586972e-110 4.12624294011073e-110 -1.3562079190647803e-110
1.7650027567470176e-110 8.163471754785495e-110 -3.826902216872478e-110
1.9574173278568707e-110 1.1560488797296331e-109 -6.281858612035262e-110
-4.181618533869989e-111 1.2946002549453277e-109 -7.371928252611108e-110
-2.0275824850688862e-110 1.0544656963259716e-109 -6.02184780219093e-110
-2.9438524148321523e-110 4.821340598054016e-110 -2.331096245398199e-110
-2.100726162007528e-195 7.821738662394549e-195 1.6642928919269251e-195
-4.20086761944336e-188 -8.979195865914186e-188 7.425901756885679e-189
4.067976884449441e-182 8.037992414444897e-181 -2.1689200288620084e-181
-1.0474103924076337e-174 -8.078226533611909e-174 -3.247603635076451e-174
3.675099856462393e-167 8.349043982018028e-167 -5.818645419544882e-167
2.2644468439376922e-160 -7.156967153569123e-160 -6.249488183416008e-160
6.489508454018765e-153 8.59392514773391e-153 -7.75773302115668e-153
4.449589780118059e-146 -6.362622066674556e-146 -6.889866691138582e-146
7.541059420983771e-139 8.634957104127199e-139 -6.82935111913292e-139
4.216129715511282e-132 -5.670600878066926e-132 -4.3833382230540763e-132
5.788359593541039e-125 8.357877886900785e-125 -2.867948674929658e-125
8.770690694771211e-119 -4.945382328498901e-118 4.947678565854296e-119
1.8219138462611525e-111 6.70527674494085e-111 1.7720984946569805e-111
-4.794528548599255e-104 -4.794934886815619e-104 4.155839014406842e-104
6.951060495145784e-104 -7.217075949262064e-105 9.426779838970083e-104
4.8494432219534005e-104 1.4029984074209383e-103 1.2295856934486554e-103
2.1242280058545346e-103 4.3034530205067686e-103 7.1554509312116e-104
9.815922816945244e-104 7.600146828570414e-103 -3.3816312821557536e-104
1.7806508081823185e-104 8.768500833623353e-103 -9.051433982178144e-104
-1.484665836800284e-103 7.33688950303e-103 -7.036155856926278e-104
-1.860322058980737e-103 2.933520660948625e-103 2.9067988720278504e-104
-4.473886085450883e-195 -1.0058961485066086e-194 2.650266192743578e-195
-3.1721662557451034e-188 9.872660495412811e-188 4.402274938467388e-189
-1.5195208275935008e-181 -9.702699682452662e-181 -1.9109827759230416e-181
3.5317698858871923e-175 9.473419676495102e-174 -4.1917671764679014e-174
2.2700818792283392e-167 -9.38872285580958e-167 -6.187777646370052e-167
4.079364274184956e-160 9.071933923513434e-160 -7.70048803619635e-160
5.561246640374331e-153 -9.063441143518781e-153 -8.568260958551729e-153
6.653554088025587e-146 8.789989700527902e-146 -8.680032414003853e-146
7.061197888311827e-139 -8.519544499884072e-139 -7.995926686561081e-139
7.074607369167638e-132 8.902929382016876e-132 -6.55061944799838e-132
6.007913009165573e-125 -7.497292460201707e-125 -4.4409111554153265e-125
5.307120132462375e-118 9.436981442662864e-118 -1.8631108825917709e-118
2.0109793818200377e-111 -6.4720663348419795e-111 1.4086604651338604e-111
1.8477417961805285e-104 9.468901267834313e-104 4.211736420680032e-104
-8.363034743042043e-97 -8.41141910320174e-97 9.550270595861725e-97
6.198148576668021e-97 -6.477066898611855e-97 2.603665406336029e-96
2.371107444353608e-97 9.511149928051848e-97 4.325684781086378e-96
1.0180319189529197e-96 2.865053823508258e-96 5.444737253438273e-96
2.6977369639203328e-104 4.198466091542237e-96 5.643537244416763e-96
-6.722271314222719e-97 3.1956490184827495e-96 5.00502311259725e-96
-5.548099488017495e-97 6.87982046468839e-97 3.004571659589548e-96
-5.366241126473741e-195 9.364647352522913e-195 2.644083779267482e-195
-1.007963252236145e-188 -7.927095909505663e-188 -1.4199605324769505e-189
-2.728262028095084e-181 8.528028608118927e-181 -1.225593683766507e-181
1.95568086862273e-174 -8.233888266603848e-174 -4.008725057104761e-174
5.328332927075116e-168 7.557456674862389e-167 -4.8024732204531795e-167
4.9884483383984727e-160 -8.58759225992043e-160 -6.904735006950172e-160
3.3028180507501954e-153 6.722126023627776e-153 -6.826389054456457e-153
7.0342745397551895e-146 -8.702994422607765e-146 -7.836090613862539e-146
4.754937103508548e-139 6.370497461760443e-139 -6.6822621988567755e-139
7.573430946525444e-132 -8.355485721578995e-132 -6.589046269128657e-132
4.81402903935242e-125 6.797823978956512e-125 -4.4648677943291983e-125
6.632777605115881e-118 -7.784247594137183e-118 -3.2418278540122215e-118
3.656127407988293e-111 8.38399961957733e-111 -9.552876857622902e-114
3.6647895791548405e-104 -8.031901844870557e-104 3.3159724224822555e-104
5.010689410854024e-98 1.2635960591511282e-96 8.31995791133879e-97
-1.5754057670445066e-89 -1.5884158993325154e-89 2.570078537050644e-89
-1.2613441692459204e-90 -2.388600584667226e-89 6.830326261020831e-89
-2.4040466916473904e-90 -1.4294063132013055e-89 1.0508957648810682e-88
1.2924795424950952e-103 -1.1547401046973161e-89 1.2145424314647271e-88
2.4040471030934747e-90 -1.4294063368282977e-89 1.0508957732681774e-88
8.605701616609838e-90 -1.7228483894348907e-89 5.563125872294986e-89
1.0733546176661379e-195 -3.242771787834108e-195 -1.6391334868922603e-196
-3.762273008677568e-188 4.858768729712777e-188 9.181383150581536e-189
2.397615667932332e-181 -3.9144460415207943e-181 -1.970594923479658e-181
-2.0644191043952976e-174 3.761644209013805e-174 -9.345083467187208e-175
3.922815291120512e-167 -4.734236944170161e-167 -3.5586388652422696e-167
-4.691908002391789e-161 2.711158539202789e-160 -2.2568423063339308e-160
5.084146165845985e-153 -5.355335111385408e-153 -4.376317159230336e-153
5.322866264515122e-147 2.046686856489597e-146 -2.6545791181851324e-146
5.572619233771022e-139 -5.549606242549456e-139 -4.233852898548603e-139
8.097182301518821e-133 1.9410919995808153e-132 -2.1036594466324373e-132
5.48497172386268e-125 -5.413785435814465e-125 -3.1768239399073413e-125
3.481334726030367e-119 2.5385346216850207e-118 -5.059687622358564e-119
4.943220023992823e-111 -5.266689229927124e-111 -8.377049151759706e-112
-1.3389478110034096e-104 4.5945175636231775e-104 2.901838661670485e-104
4.0995203714474687e-97 -5.327976462907966e-97 4.886309293039926e-97
-3.1272291649032114e-91 1.122168207283877e-89 7.944308082309707e-90
-2.2618740382969043e-82 -4.0842312306308025e-82 7.722580120232864e-82
-1.1700418540909566e-82 -6.132602803547755e-82 1.5288948173598424e-81
2.1723539166341214e-97 -6.642510268969496e-82 1.7816798685396916e-81
1.1700418540910078e-82 -6.132602803547649e-82 1.5288948173598403e-81
2.2618744026764538e-82 -4.084231733402792e-82 7.722580735937965e-82
4.479878508832188e-195 5.32106175061339e-195 1.8435289013155916e-195
-1.668080897774858e-188 -3.53223504084303e-188 -1.0695819624967542e-188
2.9235265378922646e-181 4.3272450275759015e-181 -8.162833312778432e-183
-3.2221457003300533e-174 -4.332764904717329e-174 -2.913272823591001e-174
1.1036827196793785e-167 3.1689697785504994e-167 -1.8120978054736004e-167
-4.746878757732029e-160 -5.134208687260825e-160 -4.2037381069984786e-160
-3.561606712758523e-154 2.1900705547787575e-153 -2.6352141503866904e-153
-5.557868150091498e-146 -5.558747325840159e-146 -4.266100450695726e-146
-7.605376647746489e-140 1.728350687216152e-139 -1.9816060632099695e-139
-4.9309192247861106e-132 -5.22199873652084e-132 -2.7125424736480665e-132
4.855960126098378e-126 1.9946822351195734e-125 1.8414183101731126e-126
-2.3764257578989806e-118 -3.694892485161666e-118 -9.58506400071566e-120
2.9133252721584556e-111 2.9134533940529384e-111 2.134047078308151e-111
-5.676224611428435e-111 -7.889513168486697e-112 3.3695148050848995e-111
-4.6131185990740004e-111 -1.1903138846072657e-110 6.509267004888691e-112
-2.4798397817633995e-110 -4.1262429398142806e-110 -1.3562079191033963e-110
-1.7650027566395265e-110 -8.163471754294126e-110 -3.826902216936556e-110
-1.9574173277944883e-110 -1.156048879664241e-109 -6.281858612120486e-110
4.181618533704409e-111 -1.2946002548755506e-109 -7.371928252702025e-110
2.0275824849563668e-110 -1.0544656962691152e-109 -6.021847802264695e-110
2.943852414690553e-110 -4.8213405978133874e-110 -2.3310962454285686e-110
2.1409458068028475e-195 -7.861948660740944e-195 1.724877248059336e-195
4.2008710748947974e-188 8.979196510331494e-188 7.425897427609836e-189
-4.0679619875129056e-182 -8.037992131428486e-181 -2.1689202230155884e-181
1.0474110348432136e-174 8.078226657557936e-174 -3.2476037188209485e-174
-3.675099579894751e-167 -8.349043929577502e-167 -5.8186454555854996e-167
-2.2644467247684612e-160 7.156967177178148e-160 -6.249488198952688e-160
-6.489508402931114e-153 -8.593925138097383e-153 -7.757733027811864e-153
-4.449589758161926e-146 6.3626220713576035e-146 -6.88986669400202e-146
-7.541059411688261e-139 -8.63495710239705e-139 -6.82935112034281e-139
-4.216129711548283e-132 5.670600879094864e-132 -4.383338223571056e-132
-5.788359591928194e-125 -8.357877886606616e-125 -2.8679486751393435e-125
-8.770690688067417e-119 4.945382328776395e-118 4.9476785649790395e-119
-1.821913846025732e-111 -6.705276744894479e-111 1.772098494625825e-111
4.794528548687826e-104 4.794934886904229e-104 4.1558390143957225e-104
-6.95106049493543e-104 7.21707595309037e-105 9.426779838920702e-104
-4.849443221523369e-104 -1.4029984073201867e-103 1.2295856934355605e-103
-2.1242280058080245e-103 -4.303453020319205e-103 7.15545093096675e-104
-9.81592281660119e-104 -7.600146828304765e-103 -3.381631282504644e-104
-1.7806508082314595e-104 -8.768500833329126e-103 -9.0514339825663e-104
1.4846658367540988e-103 -7.336889502786974e-103 -7.036155857245255e-104
1.860322058919616e-103 -2.9335206608447874e-103 2.906798871896084e-104
4.47389563845959e-195 1.005896147661248e-194 2.650264934477419e-195
3.172170373744042e-188 -9.872660495701953e-188 4.402269544945843e-189
1.519522604245821e-181 9.702699685516212e-181 -1.9109830086299584e-181
-3.531762220788108e-175 -9.473419676622759e-174 -4.191767276857306e-174
-2.2700815485280136e-167 9.38872285746182e-167 -6.187777689688242e-167
-4.079364131510223e-160 -9.071933923567016e-160 -7.70048805488024e-160
-5.56124657881949e-153 9.063441144410004e-153 -8.568260966616356e-153
-6.653554061470285e-146 -8.789989700548555e-146 -8.680032417480129e-146
-7.061197876854655e-139 8.519544500364886e-139 -7.995926688062878e-139
-7.074607364225087e-132 -8.902929382023528e-132 -6.550619448644719e-132
-6.007913007028755e-125 7.497292460461026e-125 -4.4409111556957364e-125
-5.3071201315379865e-118 -9.436981442664409e-118 -1.8631108827127832e-118
-2.010979381411287e-111 6.472066334981695e-111 1.40866046507998e-111
-1.847741796007361e-104 -9.468901267831559e-104 4.211736420656575e-104
8.363034743122148e-97 8.411419103282238e-97 9.55027059585181e-97
-6.198148576515646e-97 6.477066898924361e-97 2.603665406331997e-96
-2.3711074441166784e-97 -9.511149927350707e-97 4.325684781077232e-96
-1.0180319189372186e-96 -2.8650538233991526e-96 5.444737253424123e-96
-2.697729973656318e-104 -4.198466091417372e-96 5.643537244400657e-96
6.722271314023259e-97 -3.1956490183779213e-96 5.005023112583764e-96
5.548099487754054e-97 -6.879820464240524e-97 3.0045716595839206e-96
5.36624914414777e-195 -9.364648878224372e-195 2.6440827341821386e-195
1.0079667118248334e-188 7.927095254712346e-188 -1.419965041445817e-189
2.7282635217969584e-181 -8.528028892568178e-181 -1.225593878484542e-181
-1.9556802239170201e-174 8.23388814572556e-174 -4.008725141119763e-174
-5.328330139555998e-168 -7.557456728047811e-167 -4.802473256800525e-167
-4.988448217983741e-160 8.587592237960195e-160 -6.904735022636077e-160
-3.3028179984721794e-153 -6.722126033651062e-153 -6.826389061278203e-153
-7.034274517115771e-146 8.702994418810993e-146 -7.8360906168084055e-146
-4.754937093564244e-139 -6.3704974636911274e-139 -6.68226220015703e-139