# vtk DataFile Version 3.0
FrameWeb3 VTK Output
ASCII
DATASET UNSTRUCTURED_GRID
POINTS 620 float
0.0 0.0 0.0
5.0 0.0 0.0
10.0 0.0 0.0
15.0 0.0 0.0
20.0 0.0 0.0
25.0 0.0 0.0
30.0 0.0 0.0
35.0 0.0 0.0
40.0 0.0 0.0
45.0 0.0 0.0
50.0 0.0 0.0
55.0 0.0 0.0
60.0 0.0 0.0
65.0 0.0 0.0
70.0 0.0 0.0
75.0 0.0 0.0
80.0 0.0 0.0
85.0 0.0 0.0
90.0 0.0 0.0
95.0 0.0 0.0
100.0 0.0 0.0
0.0 5.0 0.0
5.0 5.0 0.0
10.0 5.0 0.0
15.0 5.0 0.0
20.0 5.0 0.0
25.0 5.0 0.0
30.0 5.0 0.0
35.0 5.0 0.0
40.0 5.0 0.0
45.0 5.0 0.0
50.0 5.0 0.0
55.0 5.0 0.0
60.0 5.0 0.0
65.0 5.0 0.0
70.0 5.0 0.0
75.0 5.0 0.0
80.0 5.0 0.0
85.0 5.0 0.0
90.0 5.0 0.0
95.0 5.0 0.0
100.0 5.0 0.0
0.0 10.0 0.0
5.0 10.0 0.0
10.0 10.0 0.0
15.0 10.0 0.0
20.0 10.0 0.0
25.0 10.0 0.0
30.0 10.0 0.0
35.0 10.0 0.0
40.0 10.0 0.0
45.0 10.0 0.0
50.0 10.0 0.0
55.0 10.0 0.0
60.0 10.0 0.0
65.0 10.0 0.0
70.0 10.0 0.0
75.0 10.0 0.0
80.0 10.0 0.0
85.0 10.0 0.0
90.0 10.0 0.0
95.0 10.0 0.0
100.0 10.0 0.0
0.0 15.0 0.0
5.0 15.0 0.0
10.0 15.0 0.0
15.0 15.0 0.0
20.0 15.0 0.0
25.0 15.0 0.0
30.0 15.0 0.0
35.0 15.0 0.0
40.0 15.0 0.0
45.0 15.0 0.0
50.0 15.0 0.0
55.0 15.0 0.0
60.0 15.0 0.0
65.0 15.0 0.0
70.0 15.0 0.0
75.0 15.0 0.0
80.0 15.0 0.0
85.0 15.0 0.0
90.0 15.0 0.0
95.0 15.0 0.0
100.0 15.0 0.0
0.0 20.0 0.0
5.0 20.0 0.0
10.0 20.0 0.0
15.0 20.0 0.0
20.0 20.0 0.0
25.0 20.0 0.0
30.0 20.0 0.0
35.0 20.0 0.0
40.0 20.0 0.0
45.0 20.0 0.0
50.0 20.0 0.0
55.0 20.0 0.0
60.0 20.0 0.0
65.0 20.0 0.0
70.0 20.0 0.0
75.0 20.0 0.0
80.0 20.0 0.0
85.0 20.0 0.0
90.0 20.0 0.0
95.0 20.0 0.0
100.0 20.0 0.0
0.0 0.0 5.0
5.0 0.0 5.0
10.0 0.0 5.0
15.0 0.0 5.0
20.0 0.0 5.0
25.0 0.0 5.0
30.0 0.0 5.0
35.0 0.0 5.0
40.0 0.0 5.0
45.0 0.0 5.0
50.0 0.0 5.0
55.0 0.0 5.0
60.0 0.0 5.0
65.0 0.0 5.0
70.0 0.0 5.0
75.0 0.0 5.0
80.0 0.0 5.0
85.0 0.0 5.0
90.0 0.0 5.0
95.0 0.0 5.0
100.0 0.0 5.0
0.0 5.0 5.0
5.0 5.0 5.0
10.0 5.0 5.0
15.0 5.0 5.0
20.0 5.0 5.0
25.0 5.0 5.0
30.0 5.0 5.0
35.0 5.0 5.0
40.0 5.0 5.0
45.0 5.0 5.0
50.0 5.0 5.0
55.0 5.0 5.0
60.0 5.0 5.0
65.0 5.0 5.0
70.0 5.0 5.0
75.0 5.0 5.0
80.0 5.0 5.0
85.0 5.0 5.0
90.0 5.0 5.0
95.0 5.0 5.0
100.0 5.0 5.0
0.0 10.0 5.0
5.0 10.0 5.0
10.0 10.0 5.0
15.0 10.0 5.0
20.0 10.0 5.0
25.0 10.0 5.0
30.0 10.0 5.0
35.0 10.0 5.0
40.0 10.0 5.0
45.0 10.0 5.0
50.0 10.0 5.0
55.0 10.0 5.0
60.0 10.0 5.0
65.0 10.0 5.0
70.0 10.0 5.0
75.0 10.0 5.0
80.0 10.0 5.0
85.0 10.0 5.0
90.0 10.0 5.0
95.0 10.0 5.0
100.0 10.0 5.0
0.0 15.0 5.0
5.0 15.0 5.0
10.0 15.0 5.0
15.0 15.0 5.0
20.0 15.0 5.0
25.0 15.0 5.0
30.0 15.0 5.0
35.0 15.0 5.0
40.0 15.0 5.0
45.0 15.0 5.0
50.0 15.0 5.0
55.0 15.0 5.0
60.0 15.0 5.0
65.0 15.0 5.0
70.0 15.0 5.0
75.0 15.0 5.0
80.0 15.0 5.0
85.0 15.0 5.0
90.0 15.0 5.0
95.0 15.0 5.0
100.0 15.0 5.0
0.0 20.0 5.0
5.0 20.0 5.0
10.0 20.0 5.0
15.0 20.0 5.0
20.0 20.0 5.0
25.0 20.0 5.0
30.0 20.0 5.0
35.0 20.0 5.0
40.0 20.0 5.0
45.0 20.0 5.0
50.0 20.0 5.0
55.0 20.0 5.0
60.0 20.0 5.0
65.0 20.0 5.0
70.0 20.0 5.0
75.0 20.0 5.0
80.0 20.0 5.0
85.0 20.0 5.0
90.0 20.0 5.0
95.0 20.0 5.0
100.0 20.0 5.0
0.0 0.0 10.0
5.0 0.0 10.0
10.0 0.0 10.0
15.0 0.0 10.0
20.0 0.0 10.0
25.0 0.0 10.0
30.0 0.0 10.0
35.0 0.0 10.0
40.0 0.0 10.0
45.0 0.0 10.0
50.0 0.0 10.0
55.0 0.0 10.0
60.0 0.0 10.0
65.0 0.0 10.0
70.0 0.0 10.0
75.0 0.0 10.0
80.0 0.0 10.0
85.0 0.0 10.0
90.0 0.0 10.0
95.0 0.0 10.0
100.0 0.0 10.0
0.0 5.0 10.0
5.0 5.0 10.0
10.0 5.0 10.0
15.0 5.0 10.0
20.0 5.0 10.0
25.0 5.0 10.0
30.0 5.0 10.0
35.0 5.0 10.0
40.0 5.0 10.0
45.0 5.0 10.0
50.0 5.0 10.0
55.0 5.0 10.0
60.0 5.0 10.0
65.0 5.0 10.0
70.0 5.0 10.0
75.0 5.0 10.0
80.0 5.0 10.0
85.0 5.0 10.0
90.0 5.0 10.0
95.0 5.0 10.0
100.0 5.0 10.0
0.0 10.0 10.0
5.0 10.0 10.0
10.0 10.0 10.0
15.0 10.0 10.0
20.0 10.0 10.0
25.0 10.0 10.0
30.0 10.0 10.0
35.0 10.0 10.0
40.0 10.0 10.0
45.0 10.0 10.0
50.0 10.0 10.0
55.0 10.0 10.0
60.0 10.0 10.0
65.0 10.0 10.0
70.0 10.0 10.0
75.0 10.0 10.0
80.0 10.0 10.0
85.0 10.0 10.0
90.0 10.0 10.0
95.0 10.0 10.0
100.0 10.0 10.0
0.0 15.0 10.0
5.0 15.0 10.0
10.0 15.0 10.0
15.0 15.0 10.0
20.0 15.0 10.0
25.0 15.0 10.0
30.0 15.0 10.0
35.0 15.0 10.0
40.0 15.0 10.0
45.0 15.0 10.0
50.0 15.0 10.0
55.0 15.0 10.0
60.0 15.0 10.0
65.0 15.0 10.0
70.0 15.0 10.0
75.0 15.0 10.0
80.0 15.0 10.0
85.0 15.0 10.0
90.0 15.0 10.0
95.0 15.0 10.0
100.0 15.0 10.0
0.0 20.0 10.0
5.0 20.0 10.0
10.0 20.0 10.0
15.0 20.0 10.0
20.0 20.0 10.0
25.0 20.0 10.0
30.0 20.0 10.0
35.0 20.0 10.0
40.0 20.0 10.0
45.0 20.0 10.0
50.0 20.0 10.0
55.0 20.0 10.0
60.0 20.0 10.0
65.0 20.0 10.0
70.0 20.0 10.0
75.0 20.0 10.0
80.0 20.0 10.0
85.0 20.0 10.0
90.0 20.0 10.0
95.0 20.0 10.0
100.0 20.0 10.0
0.0 0.0 15.0
5.0 0.0 15.0
10.0 0.0 15.0
15.0 0.0 15.0
20.0 0.0 15.0
25.0 0.0 15.0
30.0 0.0 15.0
35.0 0.0 15.0
40.0 0.0 15.0
45.0 0.0 15.0
50.0 0.0 15.0
55.0 0.0 15.0
60.0 0.0 15.0
65.0 0.0 15.0
70.0 0.0 15.0
75.0 0.0 15.0
80.0 0.0 15.0
85.0 0.0 15.0
90.0 0.0 15.0
95.0 0.0 15.0
100.0 0.0 15.0
0.0 5.0 15.0
5.0 5.0 15.0
10.0 5.0 15.0
15.0 5.0 15.0
20.0 5.0 15.0
25.0 5.0 15.0
30.0 5.0 15.0
35.0 5.0 15.0
40.0 5.0 15.0
45.0 5.0 15.0
50.0 5.0 15.0
55.0 5.0 15.0
60.0 5.0 15.0
65.0 5.0 15.0
70.0 5.0 15.0
75.0 5.0 15.0
80.0 5.0 15.0
85.0 5.0 15.0
90.0 5.0 15.0
95.0 5.0 15.0
100.0 5.0 15.0
0.0 10.0 15.0
5.0 10.0 15.0
10.0 10.0 15.0
15.0 10.0 15.0
20.0 10.0 15.0
25.0 10.0 15.0
30.0 10.0 15.0
35.0 10.0 15.0
40.0 10.0 15.0
45.0 10.0 15.0
50.0 10.0 15.0
55.0 10.0 15.0
60.0 10.0 15.0
65.0 10.0 15.0
70.0 10.0 15.0
75.0 10.0 15.0
80.0 10.0 15.0
85.0 10.0 15.0
90.0 10.0 15.0
95.0 10.0 15.0
100.0 10.0 15.0
0.0 15.0 15.0
5.0 15.0 15.0
10.0 15.0 15.0
15.0 15.0 15.0
20.0 15.0 15.0
25.0 15.0 15.0
30.0 15.0 15.0
35.0 15.0 15.0
40.0 15.0 15.0
45.0 15.0 15.0
50.0 15.0 15.0
55.0 15.0 15.0
60.0 15.0 15.0
65.0 15.0 15.0
70.0 15.0 15.0
75.0 15.0 15.0
80.0 15.0 15.0
85.0 15.0 15.0
90.0 15.0 15.0
95.0 15.0 15.0
100.0 15.0 15.0
0.0 20.0 15.0
5.0 20.0 15.0
10.0 20.0 15.0
15.0 20.0 15.0
20.0 20.0 15.0
25.0 20.0 15.0
30.0 20.0 15.0
35.0 20.0 15.0
40.0 20.0 15.0
45.0 20.0 15.0
50.0 20.0 15.0
55.0 20.0 15.0
60.0 20.0 15.0
65.0 20.0 15.0
70.0 20.0 15.0
75.0 20.0 15.0
80.0 20.0 15.0
85.0 20.0 15.0
90.0 20.0 15.0
95.0 20.0 15.0
100.0 20.0 15.0
80.0 25.0 0.0
85.0 25.0 0.0
90.0 25.0 0.0
95.0 25.0 0.0
100.0 25.0 0.0
80.0 30.0 0.0
85.0 30.0 0.0
90.0 30.0 0.0
95.0 30.0 0.0
100.0 30.0 0.0
80.0 35.0 0.0
85.0 35.0 0.0
90.0 35.0 0.0
95.0 35.0 0.0
100.0 35.0 0.0
80.0 40.0 0.0
85.0 40.0 0.0
90.0 40.0 0.0
95.0 40.0 0.0
100.0 40.0 0.0
80.0 45.0 0.0
85.0 45.0 0.0
90.0 45.0 0.0
95.0 45.0 0.0
100.0 45.0 0.0
80.0 50.0 0.0
85.0 50.0 0.0
90.0 50.0 0.0
95.0 50.0 0.0
100.0 50.0 0.0
80.0 55.0 0.0
85.0 55.0 0.0
90.0 55.0 0.0
95.0 55.0 0.0
100.0 55.0 0.0
80.0 60.0 0.0
85.0 60.0 0.0
90.0 60.0 0.0
95.0 60.0 0.0
100.0 60.0 0.0
80.0 65.0 0.0
85.0 65.0 0.0
90.0 65.0 0.0
95.0 65.0 0.0
100.0 65.0 0.0
80.0 70.0 0.0
85.0 70.0 0.0
90.0 70.0 0.0
95.0 70.0 0.0
100.0 70.0 0.0
80.0 25.0 5.0
85.0 25.0 5.0
90.0 25.0 5.0
95.0 25.0 5.0
100.0 25.0 5.0
80.0 30.0 5.0
85.0 30.0 5.0
90.0 30.0 5.0
95.0 30.0 5.0
100.0 30.0 5.0
80.0 35.0 5.0
85.0 35.0 5.0
90.0 35.0 5.0
95.0 35.0 5.0
100.0 35.0 5.0
80.0 40.0 5.0
85.0 40.0 5.0
90.0 40.0 5.0
95.0 40.0 5.0
100.0 40.0 5.0
80.0 45.0 5.0
85.0 45.0 5.0
90.0 45.0 5.0
95.0 45.0 5.0
100.0 45.0 5.0
80.0 50.0 5.0
85.0 50.0 5.0
90.0 50.0 5.0
95.0 50.0 5.0
100.0 50.0 5.0
80.0 55.0 5.0
85.0 55.0 5.0
90.0 55.0 5.0
95.0 55.0 5.0
100.0 55.0 5.0
80.0 60.0 5.0
85.0 60.0 5.0
90.0 60.0 5.0
95.0 60.0 5.0
100.0 60.0 5.0
80.0 65.0 5.0
85.0 65.0 5.0
90.0 65.0 5.0
95.0 65.0 5.0
100.0 65.0 5.0
80.0 70.0 5.0
85.0 70.0 5.0
90.0 70.0 5.0
95.0 70.0 5.0
100.0 70.0 5.0
80.0 25.0 10.0
85.0 25.0 10.0
90.0 25.0 10.0
95.0 25.0 10.0
100.0 25.0 10.0
80.0 30.0 10.0
85.0 30.0 10.0
90.0 30.0 10.0
95.0 30.0 10.0
100.0 30.0 10.0
80.0 35.0 10.0
85.0 35.0 10.0
90.0 35.0 10.0
95.0 35.0 10.0
100.0 35.0 10.0
80.0 40.0 10.0
85.0 40.0 10.0
90.0 40.0 10.0
95.0 40.0 10.0
100.0 40.0 10.0
80.0 45.0 10.0
85.0 45.0 10.0
90.0 45.0 10.0
95.0 45.0 10.0
100.0 45.0 10.0
80.0 50.0 10.0
85.0 50.0 10.0
90.0 50.0 10.0
95.0 50.0 10.0
100.0 50.0 10.0
80.0 55.0 10.0
85.0 55.0 10.0
90.0 55.0 10.0
95.0 55.0 10.0
100.0 55.0 10.0
80.0 60.0 10.0
85.0 60.0 10.0
90.0 60.0 10.0
95.0 60.0 10.0
100.0 60.0 10.0
80.0 65.0 10.0
85.0 65.0 10.0
90.0 65.0 10.0
95.0 65.0 10.0
100.0 65.0 10.0
80.0 70.0 10.0
85.0 70.0 10.0
90.0 70.0 10.0
95.0 70.0 10.0
100.0 70.0 10.0
80.0 25.0 15.0
85.0 25.0 15.0
90.0 25.0 15.0
95.0 25.0 15.0
100.0 25.0 15.0
80.0 30.0 15.0
85.0 30.0 15.0
90.0 30.0 15.0
95.0 30.0 15.0
100.0 30.0 15.0
80.0 35.0 15.0
85.0 35.0 15.0
90.0 35.0 15.0
95.0 35.0 15.0
100.0 35.0 15.0
80.0 40.0 15.0
85.0 40.0 15.0
90.0 40.0 15.0
95.0 40.0 15.0
100.0 40.0 15.0
80.0 45.0 15.0
85.0 45.0 15.0
90.0 45.0 15.0
95.0 45.0 15.0
100.0 45.0 15.0
80.0 50.0 15.0
85.0 50.0 15.0
90.0 50.0 15.0
95.0 50.0 15.0
100.0 50.0 15.0
80.0 55.0 15.0
85.0 55.0 15.0
90.0 55.0 15.0
95.0 55.0 15.0
100.0 55.0 15.0
80.0 60.0 15.0
85.0 60.0 15.0
90.0 60.0 15.0
95.0 60.0 15.0
100.0 60.0 15.0
80.0 65.0 15.0
85.0 65.0 15.0
90.0 65.0 15.0
95.0 65.0 15.0
100.0 65.0 15.0
80.0 70.0 15.0
85.0 70.0 15.0
90.0 70.0 15.0
95.0 70.0 15.0
100.0 70.0 15.0
CELLS 720 5040
6 0 1 22 105 106 127
6 0 22 21 105 127 126
6 1 2 23 106 107 128
6 1 23 22 106 128 127
6 2 3 24 107 108 129
6 2 24 23 107 129 128
6 3 4 25 108 109 130
6 3 25 24 108 130 129
6 4 5 26 109 110 131
6 4 26 25 109 131 130
6 5 6 27 110 111 132
6 5 27 26 110 132 131
6 6 7 28 111 112 133
6 6 28 27 111 133 132
6 7 8 29 112 113 134
6 7 29 28 112 134 133
6 8 9 30 113 114 135
6 8 30 29 113 135 134
6 9 10 31 114 115 136
6 9 31 30 114 136 135
6 10 11 32 115 116 137
6 10 32 31 115 137 136
6 11 12 33 116 117 138
6 11 33 32 116 138 137
6 12 13 34 117 118 139
6 12 34 33 117 139 138
6 13 14 35 118 119 140
6 13 35 34 118 140 139
6 14 15 36 119 120 141
6 14 36 35 119 141 140
6 15 16 37 120 121 142
6 15 37 36 120 142 141
6 16 17 38 121 122 143
6 16 38 37 121 143 142
6 17 18 39 122 123 144
6 17 39 38 122 144 143
6 18 19 40 123 124 145
6 18 40 39 123 145 144
6 19 20 41 124 125 146
6 19 41 40 124 146 145
6 21 22 43 126 127 148
6 21 43 42 126 148 147
6 22 23 44 127 128 149
6 22 44 43 127 149 148
6 23 24 45 128 129 150
6 23 45 44 128 150 149
[...]
POINT_DATA 620
VECTORS displacement float
-8.022738106135598e-199 5.969170909210555e-199 -3.0707563718115928e-199
-2.2892454649657008e-183 1.753297811657171e-183 -1.8788191308805134e-192
-1.3886138147542835e-176 1.0697385094501002e-176 -5.305355811517582e-177
-8.254244120465778e-170 6.402085942068177e-170 -3.157460185586416e-170
-4.7870492080174016e-163 3.742633348557289e-163 -1.8335383223476204e-163
-2.692572271826071e-156 2.1251876436154205e-156 -1.0326909570307643e-156
-1.4566565894717548e-149 1.1629412163150998e-149 -5.594104754204803e-150
-7.487639456871894e-143 6.0625363135458e-143 -2.8788820035020927e-143
-3.5885540581062616e-136 2.9575771577382966e-136 -1.380604612359517e-136
-1.5534925202411124e-129 1.3101913972782264e-129 -5.975485151987195e-130
-5.721145055155878e-123 4.983507909444052e-123 -2.1721623622371017e-123
-1.5740061121623274e-116 1.4267870109146308e-116 -6.049581311360856e-117
-2.0335764723841908e-110 2.094524690925661e-110 1.89766869667189e-111
2.6789725640537223e-109 -3.147908052063997e-109 -1.1344262864400062e-109
-1.2617932863437848e-108 1.69839559496271e-108 6.122005038134102e-109
3.0891856051005127e-108 -4.719162597211357e-108 -1.5586225519305696e-108
-4.37393618415875e-108 7.596373392075414e-108 2.2097484179802914e-108
3.743736102699853e-108 -7.25836954419564e-108 -1.849485239906472e-108
-1.8920681516530867e-108 4.08449056352692e-108 9.06523956563455e-109
4.473185851878447e-109 -1.1219731927251856e-108 -1.916082629794143e-109
2.9699694732791283e-113 -6.573676264457278e-113 -8.038495579669955e-114
7.779491342570713e-190 -3.7132659345593067e-190 1.786224853595871e-190
4.902305270453055e-183 -2.3696923323736304e-183 1.1462467317419091e-183
3.048267486457115e-176 -1.4949881795881071e-176 7.274633834201543e-177
1.865800985425049e-169 -9.305362272848679e-170 4.5569556845100244e-170
1.1207018167396306e-162 -5.699970830160039e-163 2.8102838218338e-163
6.578834769214921e-156 -3.424505692346238e-156 1.7003808004460673e-156
3.7534201953441915e-149 -2.0087541464492513e-149 1.0046571347635963e-149
2.065032196352767e-142 -1.1430250635412155e-142 5.7578423123184615e-143
1.0830277411856238e-135 -6.249029853558447e-136 3.169281309137574e-136
5.317516133437259e-129 -3.2326594379979626e-129 1.6490932990447938e-129
2.3697981867584647e-122 -1.5410510365405084e-122 7.902229603566807e-123
9.031448026189803e-116 -6.425777683912922e-116 3.26766785363903e-116
2.5666864568998745e-109 -2.0847508064718106e-109 1.1118017207490343e-109
3.295754214183185e-103 -3.3037434962899763e-103 -4.7792152863640505e-104
-3.4794003035611512e-102 4.2354880537141465e-102 1.5799014209478783e-102
1.2672154300936124e-101 -1.7918897086795553e-101 -6.332909218287046e-102
-2.244183308545699e-101 3.7385641433166535e-101 1.1403062625410723e-101
2.212579888806139e-101 -4.189409029379426e-101 -1.0983101190226915e-101
-1.2524331128504425e-101 2.653206895703991e-101 6.0733746852851015e-102
3.3023341171121457e-102 -8.283721520255815e-102 -1.414054695478285e-102
4.391709551498124e-106 -9.720307898646012e-106 -1.190907472275898e-106
-2.8026728759795593e-190 1.2300699421346162e-190 -5.679875545407762e-191
-1.914345915484777e-183 8.464019683241713e-184 -3.9286251160619845e-184
-1.29905336121398e-176 5.7931366626610395e-177 -2.704933294253128e-177
-8.747256738424653e-170 3.9406174784087475e-170 -1.852573617352986e-170
-5.835523920391044e-163 2.661044247568343e-163 -1.2609518185758724e-163
-3.8490520250466523e-156 1.7814060933051996e-156 -8.519183093050675e-157
-2.503042797859868e-149 1.1800038138415617e-149 -5.703586184961124e-150
-1.5984281044878005e-142 7.71433903669275e-143 -3.774873925794194e-143
-9.965152091277289e-136 4.959134172198167e-136 -2.4607496499875325e-136
-6.010440963062732e-129 3.1170201871567714e-129 -1.5706238656117063e-129
-3.4552674124456797e-122 1.8972982720106638e-122 -9.712923612898742e-123
-1.843484928465925e-115 1.0983892547032324e-115 -5.717850766869859e-116
-8.655929147471618e-109 5.805277126725073e-109 -3.0260131231524435e-109
-3.1468124324120525e-102 2.5575579796566318e-102 -1.4842808367657972e-102
-5.294768958674091e-96 5.872881398668587e-96 1.2371939227592952e-96
4.4284348047275316e-95 -5.4816850674461336e-95 -2.109435158701173e-95
-1.0886328330169308e-94 1.7103453127337164e-94 5.549055632287222e-95
1.2730959843019268e-94 -2.3467359235451996e-94 -6.336884823250824e-95
-8.180388989274763e-95 1.6913464167436655e-94 4.0262096089637365e-95
2.4380747212115294e-95 -6.116816537108775e-95 -1.0433392470936284e-95
6.490199079239068e-99 -1.4373752101600514e-98 -1.762033392894258e-99
4.793506647831452e-191 -1.9113550517507843e-191 8.191672348190776e-192
3.5386529034209667e-184 -1.411035552885e-184 6.048189348619598e-185
2.612242667933719e-177 -1.0416883261402544e-177 4.466176204644746e-178
1.9282792260788643e-170 -7.690283131723446e-171 3.298814666306248e-171
1.4232671946835353e-163 -5.677459534030877e-164 2.4377814100784003e-164
1.0503151058933903e-156 -4.1915544971555367e-157 1.803183729788895e-157
7.747796958822797e-150 -3.094594039229723e-150 1.3361301513356247e-150
5.710456005709617e-143 -2.284667275700224e-143 9.932344714769278e-144
4.201413318896537e-136 -1.6864486352120212e-136 7.425300706364109e-137
3.0797060420689645e-129 -1.2441878619574071e-129 5.603862248872414e-130
2.239967481004392e-122 -9.165394518820765e-123 4.2913561778996195e-123
1.6026603885973937e-115 -6.727369465892778e-116 3.3485857035267334e-116
1.1069265206822643e-108 -4.901710237523522e-109 2.667624844572279e-109
7.069559101634597e-102 -3.498284152992334e-102 2.061219562887315e-102
3.712039556887106e-95 -2.442818430820768e-95 1.735021942928236e-95
1.0600013125758563e-88 -9.927435470035549e-89 -3.0339930681751226e-89
-4.858596468921641e-88 6.972581746848425e-88 2.4385359715649493e-88
7.082464546240483e-88 -1.2680960336810118e-87 -3.518999270125405e-88
-5.252884616097871e-88 1.0512294952826718e-87 2.633767908364927e-88
1.8002325197345183e-88 -4.5180066014375934e-88 -7.696068006271897e-89
9.5971788994238e-92 -2.1261534716116532e-91 -2.609384389634494e-92
-7.382196758495239e-196 3.3162729694601233e-196 -9.113050419479946e-197
-1.093936848290444e-188 4.9138272099201064e-189 -1.3415583448589564e-189
-1.6210210865219328e-181 7.298301345343653e-182 -1.9869833529914005e-182
-2.400021715304008e-174 1.081802109856912e-174 -2.941186635388958e-175
-3.551883378070337e-167 1.6019161409201125e-167 -4.352464495324458e-168
-5.255497010271395e-160 2.370924960765952e-160 -6.4404983798784865e-161
-7.775544315749251e-153 3.508275005327225e-153 -9.531479530141328e-154
-1.150379930460049e-145 5.190709437899462e-146 -1.411236258222849e-146
-1.7020531487162802e-138 7.679824054697662e-139 -2.0919050239742714e-139
-2.518600524350549e-131 1.136283661926284e-131 -3.109548104736703e-132
-3.7276747724693327e-124 1.6811364072878732e-124 -4.651738994842234e-125
-5.518205765774859e-117 2.486688529666712e-117 -7.066015817295104e-118
-8.166384172872116e-110 3.66934225001144e-110 -1.1035794601174992e-110
-1.2036415439465813e-102 5.417349256844171e-103 -1.8714883928227198e-103
-1.7497245089357525e-95 7.720085007255698e-96 -3.1398653470774293e-96
-2.2800435020916646e-88 1.430308768136547e-88 -9.137581739075274e-89
-1.849062112773229e-81 2.330621806467788e-81 8.854757403597983e-82
3.77261926961211e-81 -6.572183881477999e-81 -1.8529780393948317e-81
-3.298369034147171e-81 6.303344147663908e-81 1.6928937942253917e-81
1.3296768566162564e-81 -3.3390721029001484e-81 -5.67606573477709e-82
1.4197543778287127e-84 -3.145942692508751e-84 -3.871457519490743e-85
-7.145880899235088e-190 4.985294129438158e-190 1.7447762469182494e-190
-4.363143234067302e-183 3.0795422167268443e-183 9.680906009989569e-184
-2.669189701085311e-176 1.894093359609699e-176 5.845043154790828e-177
-1.602966531845447e-169 1.1446750077614333e-169 3.455513144194397e-170
-9.413990195276584e-163 6.772901956186437e-163 1.991054031734909e-163
-5.379202378599329e-156 3.904977936848826e-156 1.1111695826060287e-156
-2.9698384285380536e-149 2.179741154506572e-149 5.953794238814714e-150
-1.568658819337767e-142 1.1672705276760187e-142 3.023732365647006e-143
-7.811188096947222e-136 5.9165591041198826e-136 1.4266539161094076e-136
-3.582308035486071e-129 2.7790275409292276e-129 6.047934004362306e-130
-1.4508328919331433e-122 1.1660416381203613e-122 2.144317878138088e-123
-4.7832060408285004e-116 4.048391484217402e-116 5.684278018490036e-117
-9.32904225732554e-110 9.515233260946954e-110 -1.8881522201520176e-111
7.448115199057036e-109 -9.04526984993327e-109 1.1744753925156346e-109
-2.6859825173431016e-108 3.7155525051813455e-108 -7.575784127179742e-109
5.565586380222257e-108 -8.645697319138038e-108 2.3256095629077515e-108
-7.090777901509921e-108 1.2354681157470799e-107 -4.127515922091985e-108
5.648831355852914e-108 -1.0924958983399515e-107 4.293266981938456e-108
-2.6964476563938653e-108 5.791006637838589e-108 -2.5966878638885097e-108
6.066933980872772e-109 -1.5101911144546411e-108 7.996111389760048e-109
4.189915106465198e-113 -8.950040816792865e-113 4.823668572258058e-113
1.124119684460604e-189 -5.4030661303903395e-190 -4.872046054946934e-190
7.126495904707535e-183 -3.466820757208847e-183 -3.0408445002841103e-183
4.462883080742586e-176 -2.2010301958700557e-176 -1.8700318003922536e-176
2.755012696001369e-169 -1.3802948764427828e-169 -1.1300248846013884e-169
1.6720412090812705e-162 -8.531299759910132e-163 -6.68617635119679e-163
9.94239220533564e-156 -5.182278775534819e-156 -3.8556343028403143e-156
5.7659883337726445e-149 -3.0821155113218716e-149 -2.1533025822704466e-149
3.2411238364750612e-142 -1.7854889612800296e-142 -1.1544709436226475e-142
1.7504484911524495e-135 -1.000148306947723e-135 -5.866429733332294e-136
8.966164080690985e-129 -5.3584575336686195e-129 -2.7703144848071547e-129
4.2678271319167025e-122 -2.6988881584507016e-122 -1.1772114844265972e-122
1.8189299132374118e-115 -1.240047993211881e-115 -4.210340173858411e-116
6.4702011909044715e-109 -4.870643109365444e-109 -1.1473129728592432e-109
1.3721204810542295e-102 -1.4060734889566044e-102 4.0907696899949244e-104
-8.653601620241746e-102 1.0975182340863557e-101 -1.7073247553243516e-102
2.428312486251645e-101 -3.5490081755815145e-101 8.306515501072465e-102
-3.733149095624607e-101 6.273239261828129e-101 -1.96343019421279e-101
3.380527403744179e-101 -6.396900578272215e-101 2.437595205430187e-101
-1.7948392360565128e-101 3.787757930897081e-101 -1.6590308191839413e-101
4.478843699735636e-102 -1.1149715277312752e-101 5.904654292715462e-102
6.195821921697796e-106 -1.3232782463389671e-105 7.131104999327753e-106
-3.897695698883091e-190 1.7239518798640158e-190 1.8629871446780638e-190
-2.669212780332078e-183 1.1890266922259705e-183 1.2651346222198938e-183
-1.816820788000624e-176 8.160274516198817e-177 8.526472250440703e-177
-1.2278074237766019e-169 5.5683478400967636e-170 5.694550094603334e-170
-8.227021500612327e-163 3.774269791680698e-163 3.7614464062730196e-163
-5.455968389803801e-156 2.537960813703855e-156 2.450819075541319e-156
-3.572571710519407e-149 1.6903672209485707e-149 1.5694706996089643e-149
-2.3022635269329136e-142 1.1127283564988969e-142 9.827728687888119e-143
-1.4534991131615444e-135 7.218288070133889e-136 5.972611470968916e-136
-8.931268770184323e-129 4.5952014907927777e-129 3.483298907917807e-129
-5.289316442590476e-122 2.8527676717444007e-122 1.9151431850655414e-122
-2.973410827189781e-115 1.7091738623616672e-115 9.642930375293083e-116
-1.5422360300568202e-108 9.688915063810071e-109 4.181449851920003e-109
-7.043462710480275e-102 4.938515321308656e-102 1.479255881060015e-102
-1.972530619935925e-95 2.109816120839492e-95 -1.3172884461156716e-96
9.423831343465684e-95 -1.2514821412842762e-94 2.287779563668487e-95
-1.876575352109502e-94 3.004226181212134e-94 -8.568478212585258e-95
1.9758029228775313e-94 -3.6480022467153215e-94 1.342373401112866e-94
-1.1805008856871246e-94 2.4364383927575144e-94 -1.034405780020107e-94
3.306400466739822e-95 -8.23231674391823e-95 4.361104572333873e-95
9.155164554277072e-99 -1.9565529968644478e-98 1.0538291585136884e-98
6.451931615841845e-191 -2.5922268035894715e-191 -3.415092284205397e-191
4.762841572506281e-184 -1.9136349292535166e-184 -2.5208409424170923e-184
3.515818029455745e-177 -1.4126655506770764e-177 -1.860544493819597e-177
2.5951056645747524e-170 -1.0428164907512666e-170 -1.3729035326985175e-170
1.9152382404442495e-163 -7.697595512655917e-164 -1.0126441219608879e-163
1.4131041025084652e-156 -5.681520434608615e-157 -7.463150209327316e-157
1.0420898418568137e-149 -4.192858091213829e-150 -5.491858906490932e-150
7.677569120804883e-143 -3.0935296996055797e-143 -4.0295863308316846e-143
5.646508272882262e-136 -2.2816795347147816e-136 -2.9408238583723315e-136
4.139475681255101e-129 -1.6822771874321952e-129 -2.1252012676585143e-129
3.017205021635139e-122 -1.240239019597863e-122 -1.5086141714260685e-122
2.1765485927376626e-115 -9.154122268362695e-116 -1.0369305864321089e-115
1.5415539265688443e-108 -6.788226118950505e-109 -6.727953892246268e-109
1.0522256593009466e-101 -5.100434030999026e-102 -3.884022127813854e-102
6.811984679742513e-95 -3.8275519844961524e-95 -1.9370968015625934e-95
2.890808275660122e-88 -3.069179533036118e-88 2.4605261560410397e-89
-8.841620982742065e-88 1.3162508380078834e-87 -3.244245221883845e-88
1.1213884433332959e-87 -2.015833401739826e-87 7.147120086368815e-88
-7.648250918642163e-88 1.5330041904675995e-87 -6.232456436749859e-88
2.4407091060613704e-88 -6.078790889758334e-88 3.221970122040046e-88
1.3533244461122114e-91 -2.893074358518712e-91 1.5572848364682367e-91
-1.0054353017621882e-195 4.681699261492114e-196 5.40074899246174e-196
-1.490112349080428e-188 6.934562215975216e-189 8.005244405958722e-189
-2.2076617611635693e-181 1.0298766155711793e-181 1.1875301351276131e-181
-3.2682495739226673e-174 1.526480011673828e-174 1.7591428799458515e-174
-4.8364972388326915e-167 2.2603080532912504e-167 2.604029555702876e-167
-7.155805576476063e-160 3.345227419695732e-160 3.8531873890302626e-160
-1.0585978119109847e-152 4.949531361517931e-153 5.699980933972795e-153
-1.5658529413207533e-145 7.32181728276594e-146 8.429132481666513e-146
-2.3157410088860623e-138 1.0828773478947987e-138 1.2457433538444753e-138
-3.423516706633443e-131 1.6009550859819368e-131 1.838687739587917e-131
-5.057511182841146e-124 2.365206649500323e-124 2.7060022503990095e-124
-7.461004884327738e-117 3.489332930350721e-117 3.9573736221642456e-117
-1.0977123439094132e-109 5.1364529964886426e-110 5.705852658770172e-110
-1.6103671243232938e-102 7.531712508090414e-103 8.000122524529448e-103
-2.3377411269150406e-95 1.1199856090870461e-95 1.0318905096914823e-95
-3.50135661371481e-88 1.731574429049663e-88 1.2295897692011833e-88
-3.6641917990105136e-81 4.925835688815164e-81 -9.519173880184518e-82
6.13155592570944e-81 -1.0735815698797641e-80 3.6855822650360676e-81
-4.859175750770681e-81 9.3557374915729e-81 -3.567073296884654e-81
1.801306773576971e-81 -4.489017928723184e-81 2.3811011065756146e-81
2.0004061136019449e-84 -4.276930196308905e-84 2.2994556853864755e-84
7.02202488746993e-190 -4.93327460313453e-190 1.5755064279847735e-190
4.3631432380340154e-183 -3.0795422243851568e-183 9.680905864321244e-184
2.6691897025097868e-176 -1.8940933609347717e-176 5.845043154076226e-177
1.6029665323486717e-169 -1.1446750082289822e-169 3.455513143942891e-170
9.413990197019144e-163 -6.77290195780404e-163 1.9910540316482642e-163
5.379202379187892e-156 -3.904977937395024e-156 1.1111695825769602e-156
2.9698384287306126e-149 -2.179741154685392e-149 5.95379423872064e-150
1.5686588193981766e-142 -1.1672705277322432e-142 3.0237323656178167e-143
7.811188097126148e-136 -5.9165591042871854e-136 1.4266539161010304e-136
3.582308035534887e-129 -2.7790275409752204e-129 6.047934004339008e-130
1.4508328919448676e-122 -1.1660416381315445e-122 2.144317878133596e-123
4.783206040851264e-116 -4.048391484239352e-116 5.684278018475024e-117
9.32904225735283e-110 -9.51523326097436e-110 -1.8881522201457348e-111
-7.448115199089587e-109 9.045269849969376e-109 1.1744753925137118e-109
2.6859825173596097e-108 -3.7155525052013044e-108 -7.575784127167229e-109
-5.565586380266812e-108 8.645697319199331e-108 2.325609562903183e-108
7.090777901580595e-108 -1.2354681157579835e-107 -4.1275159220829534e-108
-5.648831355916741e-108 1.0924958983516047e-107 4.2932669819279225e-108
2.6964476564274014e-108 -5.791006637904635e-108 -2.596687863882321e-108
-6.066933980966239e-109 1.51019111447737e-108 7.99611138973733e-109
-4.189915106411734e-113 8.950040816680826e-113 4.823668572269135e-113
-1.1241196883189162e-189 5.403066113827819e-190 -4.872045990236832e-190
-7.1264959275734674e-183 3.4668207877655265e-183 -3.040844533192944e-183
-4.46288308456405e-176 2.201030198015674e-176 -1.870031800050368e-176
-2.755012697376765e-169 1.3802948772298028e-169 -1.1300248844794789e-169
-1.6720412095687023e-162 8.531299762759486e-163 -6.686176350769494e-163
-9.942392207031157e-156 5.182278776550248e-156 -3.8556343026936406e-156
-5.76598833434905e-149 3.0821155116767494e-149 -2.153302582221385e-149
-3.241123836665418e-142 1.7854889614010222e-142 -1.1544709436067801e-142
-1.7504484912129864e-135 1.0001483069876574e-135 -5.866429733283083e-136
-8.966164080873872e-129 5.3584575337947116e-129 -2.770314484792877e-129
-4.2678271319680357e-122 2.69888815848806e-122 -1.1772114844227116e-122
-1.8189299132502447e-115 1.2400479932219096e-115 -4.2103401738502096e-116
-6.47020119093075e-109 4.870643109388092e-109 -1.1473129728571778e-109
-1.3721204810576545e-102 1.406073488960035e-102 4.090769689987804e-104
8.653601620274144e-102 -1.0975182340899648e-101 -1.7073247553224214e-102
-2.4283124862637396e-101 3.549008175597218e-101 8.306515501061585e-102
3.733149095648108e-101 -6.273239261862652e-101 -1.9634301942100137e-101
-3.380527403767762e-101 6.396900578314785e-101 2.4375952054263626e-101
1.7948392360697716e-101 -3.787757930922726e-101 -1.6590308191815534e-101
-4.4788436997753985e-102 1.1149715277409459e-101 5.9046542927057975e-102
-6.19582192165214e-106 1.3232782463293993e-105 7.131104999337209e-106
3.8976957140184133e-190 -1.7239518872546602e-190 1.862987143241216e-190
2.6692127863210986e-183 -1.1890266951851132e-183 1.2651346216535716e-183
1.8168207903570886e-176 -8.160274528000541e-177 8.526472248222642e-177
1.2278074246976665e-169 -5.568347844782493e-170 5.694550093741057e-170
8.227021504184337e-163 -3.7742697935315166e-163 3.7614464059407866e-163
5.455968391176065e-156 -2.537960814430504e-156 2.4508190754146876e-156
3.5725717110405362e-149 -1.6903672212318131e-149 1.5694706995613443e-149
2.302263527127976e-142 -1.1127283566083346e-142 9.827728687712072e-143
1.4534991132332148e-135 -7.21828807055202e-136 5.972611470905281e-136
8.93126877044126e-129 -4.595201490950151e-129 3.48329890789544e-129
5.289316442679513e-122 -2.8527676718023507e-122 1.9151431850580504e-122
2.9734108272191506e-115 -1.7091738623822672e-115 9.642930375268948e-116
1.5422360300657748e-108 -9.688915063878719e-109 4.1814498519135544e-109
7.04346271050397e-102 -4.938515321328723e-102 1.4792558810580263e-102
1.9725306199402105e-95 -2.1098161208437907e-95 -1.3172884461148787e-96
-9.423831343494726e-95 1.2514821412877456e-94 2.2877795636664177e-95
1.8765753521170853e-94 -3.0042261812225165e-94 -8.56847821257734e-95
-1.975802922886156e-94 3.648002246730718e-94 1.3423734011114904e-94
1.1805008856923354e-94 -2.436438392767377e-94 -1.0344057800191956e-94
-3.306400466756744e-95 8.232316743959373e-95 4.361104572329759e-95
-9.155164554238055e-99 1.9565529968562793e-98 1.0538291585144971e-98
-6.451931657447418e-191 2.5922268206976745e-191 -3.4150922800488816e-191
-4.762841590206632e-184 1.913634936532158e-184 -2.5208409406487727e-184
-3.5158180369859246e-177 1.4126655537738222e-177 -1.8605444930673065e-177
-2.5951056677781756e-170 1.0428164920688501e-170 -1.372903532378483e-170
-1.91523824180693e-163 7.697595518262342e-164 -1.0126441218247494e-163
-1.413104103088049e-156 5.681520436994574e-157 -7.463150208748266e-157
-1.0420898421032592e-149 4.192858092229568e-150 -5.491858906244702e-150