ITEM: TIMESTEP
0
ITEM: NUMBER OF ATOMS
592
ITEM: BOX BOUNDS pp pp pp
0.0000000000000000e+00 1.7606958851500000e+01
0.0000000000000000e+00 1.5248073648800000e+01
0.0000000000000000e+00 3.1980000000000000e+01
ITEM: ATOMS id type element xu yu zu fx fy fz q
1 1 Au 1.641 0.907 -6.109 0.411428 0.585365 -3.3421 -0.113078
2 1 Au 4.468 0.823 -6.152 0.13885 -0.150762 -6.9562 -0.164379
3 1 Au 7.34 0.806 -5.843 -0.0664682 -0.475199 -4.25073 -0.124202
4 1 Au 10.208 0.687 -6.268 -1.32482 -0.501554 -1.61011 -0.0766175
5 1 Au 13.118 0.788 -6.069 1.20377 -0.37836 -1.66179 -0.0710817
6 1 Au 16.208 1.084 -5.878 -0.00497218 0.139737 -1.26528 -0.068047
7 1 Au -0.104 3.513 -6.014 0.786745 0.0953882 -3.88185 -0.122544
8 1 Au 2.86 3.189 -5.905 -0.0179412 2.11754 -9.23198 -0.187196
9 1 Au 5.817 3.228 -6.048 -0.551994 0.791663 -7.47732 -0.171843
10 1 Au 9.181 3.288 -5.996 -0.751017 0.459885 -1.70849 -0.0841247
11 1 Au 11.978 3.536 -6.038 0.0013031 0.000582358 0.000637756 -0.000415426
12 1 Au 14.755 3.415 -5.902 0.0948515 -0.149923 -0.750334 -0.0519397
13 1 Au 1.439 5.849 -6.026 1.20307 -0.697356 -8.4715 -0.185763
14 1 Au 4.412 5.936 -5.893 -0.0541572 -0.890378 -6.30387 -0.159709
15 1 Au 7.405 5.694 -6.133 -0.154286 -0.523211 -8.3122 -0.185593
16 1 Au 10.179 5.969 -6.03 -0.280908 -0.0115787 -3.57953 -0.113734
17 1 Au 13.149 6.072 -6.388 -0.232875 0.245959 -0.886466 -0.0624546
18 1 Au 16.06 5.877 -5.97 0.521998 0.175486 -1.61021 -0.078135
19 1 Au 0.161 8.664 -6.014 0.376785 0.379715 -6.57131 -0.161695
20 1 Au 3.057 8.369 -6.088 -0.140245 1.26 -8.61457 -0.187428
21 1 Au 5.98 8.346 -6.298 -0.67127 -0.433011 -13.2295 -0.232956
22 1 Au 8.798 8.645 -6.073 -0.358954 0.247313 -4.97181 -0.13619
23 1 Au 11.943 8.453 -6.232 -0.065677 0.706237 -3.4423 -0.117906
24 1 Au 14.916 8.46 -6.088 0.392211 0.796428 -3.55251 -0.118444
25 1 Au 1.532 11.18 -6.015 0.335034 0.52013 -12.7091 -0.227077
26 1 Au 4.592 10.899 -5.867 -0.912567 0.602026 -8.31669 -0.180523
27 1 Au 7.474 11.008 -6.17 -0.358419 0.473624 -9.95903 -0.199212
28 1 Au 10.437 10.942 -6.12 -0.0755244 0.713827 -7.55153 -0.171468
29 1 Au 13.297 10.944 -6.006 0.0148969 1.05694 -8.11392 -0.173935
30 1 Au 16.205 11.161 -5.905 0.354527 -0.0370136 -6.84211 -0.160694
31 1 Au 0.032 13.7 -6.151 0.607289 -2.26191 -5.25109 -0.147502
32 1 Au 2.964 13.66 -5.779 1.15665 -1.3694 -6.37929 -0.151419
33 1 Au 5.824 13.656 -6.035 0.606173 -0.749582 -11.3333 -0.213014
34 1 Au 8.75 13.499 -6.034 -0.74936 -0.12595 -7.59947 -0.173801
35 1 Au 11.697 13.4 -5.926 0.0562905 -0.995565 -5.0809 -0.135257
36 1 Au 14.652 13.48 -5.869 -0.331713 -0.55224 -2.53715 -0.0998618
37 1 Au -0.086 1.687 -3.525 -3.52409e-05 0.000289921 -0.00425985 0.00444444
38 1 Au 2.958 1.601 -3.511 0.000132444 0.00243237 -0.0173233 0.00842207
39 1 Au 5.724 1.703 -3.647 -0.000480677 -2.52398e-06 -0.0159879 0.0083956
40 1 Au 8.953 1.691 -3.607 -0.000498193 -0.00030527 -0.00346487 0.0041124
41 1 Au 11.778 1.565 -3.565 -0.000312156 -0.00188161 -0.00664363 0.00482472
42 1 Au 14.51 1.687 -3.602 0.000216435 0.000151671 -0.000829845 0.00216405
43 1 Au 1.57 4.259 -3.476 -0.000368887 -0.000685202 -0.00404813 0.00459053
44 1 Au 4.412 4.29 -3.506 0.000340522 -0.000586914 -0.00192264 0.00368816
45 1 Au 7.36 4.27 -3.592 -0.000954277 0.00109956 -0.00212383 0.00347102
46 1 Au 10.313 4.279 -3.664 -0.000891132 0.00037946 -0.00328648 0.00373073
47 1 Au 13.264 4.282 -3.518 0.000394042 5.78662e-05 -0.000653186 0.00162704
48 1 Au 16.08 4.23 -3.634 0.00124899 -0.000235427 -0.00718541 0.00557535
49 1 Au -0.056 6.853 -3.554 0.00121989 -9.88817e-05 -0.00308195 0.00408103
50 1 Au 2.871 6.754 -3.614 0.00141927 0.00196126 -0.00922947 0.0065389
51 1 Au 5.962 6.939 -3.712 -0.00223242 0.00140764 -0.00923956 0.00679536
52 1 Au 8.849 6.888 -3.673 0.000353795 -0.000135029 -0.0057313 0.00531164
53 1 Au 11.841 6.813 -3.679 -0.000806997 0.000588305 -0.00356848 0.00393536
54 1 Au 14.696 6.857 -3.626 0.000637325 0.000524856 -0.00481193 0.00437005
55 1 Au 1.422 9.315 -3.703 -0.00281744 0.000190662 -0.00698782 0.00615683
56 1 Au 4.277 9.337 -3.442 0.00127628 0.000341155 -0.00808455 0.00587058
57 1 Au 7.213 9.394 -3.692 0.000648164 0.00115216 -0.01396 0.00791788
58 1 Au 10.284 9.388 -3.477 -0.00102937 0.00144459 -0.00739219 0.00551357
59 1 Au 13.12 9.284 -3.587 -0.000142297 0.00214333 -0.00790089 0.00577484
60 1 Au 16.091 9.286 -3.533 0.000651264 0.000937814 -0.00567379 0.00520814
61 1 Au 0.019 11.884 -3.568 4.03145e-05 -0.00242336 -0.00725923 0.00616731
62 1 Au 3.08 11.788 -3.692 -0.00176199 0.000322319 -0.00192959 0.00471833
63 1 Au 6.021 11.892 -3.644 -0.00069858 -0.00147925 -0.00722574 0.00620839
64 1 Au 8.948 11.813 -3.606 -0.000523989 -0.000355738 -0.00985721 0.00674554
65 1 Au 11.818 11.813 -3.488 -0.000353207 -0.00045887 -0.00864998 0.00608244
66 1 Au 14.595 11.804 -3.629 0.000900825 -0.00190586 -0.00923142 0.00667676
67 1 Au 1.412 14.474 -3.43 0.00278215 -0.000595752 -0.0111771 0.00676923
68 1 Au 4.502 14.383 -3.408 -0.000717783 0.000380607 -0.0125963 0.00720515
69 1 Au 7.328 14.397 -3.518 -0.00122691 0.000554381 -0.00854569 0.00629434
70 1 Au 10.357 14.35 -3.626 0.00150647 -0.00190553 -0.00888584 0.00633647
71 1 Au 13.137 14.408 -3.685 -0.00206016 -0.000737837 -0.00490329 0.00495935
72 1 Au 16.218 14.516 -3.694 0.00108129 -0.000957065 -0.00569181 0.0050979
73 1 Au 0 0 -1.198 4.2831e-06 -2.22924e-06 -1.3915e-05 -0.000249168
74 1 Au 2.934 0 -1.198 2.7939e-07 6.70911e-06 -8.67968e-06 -0.000228939
75 1 Au 5.869 0 -1.198 -5.30361e-06 -1.76244e-06 -9.83402e-06 -0.000225033
76 1 Au 8.803 0 -1.198 1.00887e-06 -1.11112e-06 -3.23466e-06 -0.000125968
77 1 Au 11.738 0 -1.198 -1.07245e-06 2.42443e-06 -6.66311e-06 -0.000183843
78 1 Au 14.672 0 -1.198 -2.41354e-07 -3.68275e-07 -3.48937e-06 -0.000117474
79 1 Au 1.467 2.541 -1.198 1.01708e-06 -1.58454e-06 -6.98218e-07 -8.75255e-05
80 1 Au 4.402 2.541 -1.198 -2.30142e-09 -5.59033e-06 -3.93757e-06 -0.000153327
81 1 Au 7.336 2.541 -1.198 -2.57718e-07 1.72315e-08 -2.8101e-07 -5.78809e-05
82 1 Au 10.271 2.541 -1.198 2.20706e-06 -1.34103e-06 -6.97674e-06 -0.00018641
83 1 Au 13.205 2.541 -1.198 -3.13408e-06 -1.37961e-06 -5.97606e-06 -0.000156349
84 1 Au 16.14 2.541 -1.198 4.37465e-07 2.67995e-07 -9.01047e-07 -7.34115e-05
85 1 Au 0 5.083 -1.198 -2.35039e-07 4.71931e-08 9.61055e-08 -4.33228e-05
86 1 Au 2.934 5.083 -1.198 -1.57729e-06 1.28802e-06 -3.7634e-06 -0.000126709
87 1 Au 5.869 5.083 -1.198 -2.86937e-08 -3.59735e-08 -7.06947e-08 1.09574e-05
88 1 Au 8.803 5.083 -1.198 1.07549e-07 -1.74975e-07 -4.95233e-07 -5.26322e-05
89 1 Au 11.738 5.083 -1.198 3.25569e-07 -7.1687e-07 -4.38976e-06 -0.000134302
90 1 Au 14.672 5.083 -1.198 1.05647e-06 6.64841e-07 -3.97046e-06 -0.000137648
91 1 Au 1.467 7.624 -1.198 1.11295e-06 -1.04716e-07 -1.69139e-06 -9.87009e-05
92 1 Au 4.402 7.624 -1.198 -4.01066e-07 1.74238e-06 -3.96291e-07 -8.85214e-05
93 1 Au 7.336 7.624 -1.198 -1.13944e-06 1.38103e-06 -6.59581e-06 -0.000165671
94 1 Au 10.271 7.624 -1.198 1.37001e-07 2.09892e-06 -3.61171e-06 -0.000133359
95 1 Au 13.205 7.624 -1.198 3.31612e-07 1.55846e-06 -1.18118e-05 -0.000223453
96 1 Au 16.14 7.624 -1.198 -1.35094e-06 5.05043e-07 -6.42558e-06 -0.000171219
97 1 Au 0 10.165 -1.198 1.25547e-09 1.714e-09 -4.21741e-09 3.37822e-07
98 1 Au 2.934 10.165 -1.198 2.0372e-06 -3.04766e-06 -2.73854e-06 -0.000105715
99 1 Au 5.869 10.165 -1.198 1.07143e-06 -1.69114e-06 -1.97881e-06 -0.000124773
100 1 Au 8.803 10.165 -1.198 1.12015e-06 5.94608e-07 -3.88742e-06 -0.000158015
101 1 Au 11.738 10.165 -1.198 -1.00606e-06 -5.67113e-07 -1.03969e-05 -0.000225579
102 1 Au 14.672 10.165 -1.198 -8.50687e-07 -9.35454e-07 -2.28724e-06 -0.000118012
103 1 Au 1.467 12.707 -1.198 2.58577e-07 -1.89929e-07 -1.19986e-07 7.64597e-06
104 1 Au 4.402 12.707 -1.198 1.83101e-06 1.85111e-06 -1.09679e-06 -7.62998e-05
105 1 Au 7.336 12.707 -1.198 -5.91283e-07 8.5874e-07 -5.50065e-06 -0.000170889
106 1 Au 10.271 12.707 -1.198 -2.49017e-07 -1.39649e-06 -5.97495e-06 -0.000179296
107 1 Au 13.205 12.707 -1.198 -6.99153e-07 -2.355e-06 -6.63922e-06 -0.000171248
108 1 Au 16.14 12.707 -1.198 4.59735e-07 3.30434e-07 -5.2805e-07 -7.24619e-05
109 1 Au 1.467 0.847 1.198 -1.75678e-06 -3.86366e-06 7.03389e-06 -0.000181447
110 1 Au 4.402 0.847 1.198 5.13749e-07 3.13428e-06 2.26203e-06 -0.000108032
111 1 Au 7.336 0.847 1.198 -2.14916e-08 2.87484e-06 4.9353e-07 -7.53629e-05
112 1 Au 10.271 0.847 1.198 1.42754e-06 1.87922e-06 -2.05216e-08 -7.53432e-05
113 1 Au 13.205 0.847 1.198 -5.05513e-06 -2.20557e-06 7.5836e-06 -0.000181346
114 1 Au 16.14 0.847 1.198 2.52035e-06 -1.44966e-06 5.93265e-06 -0.000162851
115 1 Au 0 3.388 1.198 -1.41657e-06 -9.7059e-08 1.94525e-06 -0.000117884
116 1 Au 2.934 3.388 1.198 1.56651e-06 2.94997e-06 3.2987e-06 -0.000138183
117 1 Au 5.869 3.388 1.198 -1.84708e-06 -3.01671e-06 1.70049e-05 -0.000277291
118 1 Au 8.803 3.388 1.198 -1.03813e-06 -2.56058e-06 3.57124e-06 -0.000151032
119 1 Au 11.738 3.388 1.198 -3.76656e-07 -3.23531e-07 -1.70386e-07 -4.99133e-05
120 1 Au 14.672 3.388 1.198 3.75468e-06 1.82704e-06 3.71901e-06 -0.000124202
121 1 Au 1.467 5.93 1.198 -4.80016e-07 8.14888e-07 5.75014e-07 2.69391e-05
122 1 Au 4.402 5.93 1.198 -1.98498e-06 -1.07152e-06 1.01487e-05 -0.000218647
123 1 Au 7.336 5.93 1.198 2.32239e-06 1.645e-06 1.7813e-05 -0.000268416
124 1 Au 10.271 5.93 1.198 -9.67945e-07 6.99264e-07 1.024e-05 -0.000216727
125 1 Au 13.205 5.93 1.198 -2.61538e-07 4.55772e-07 5.83224e-06 -0.000164005
126 1 Au 16.14 5.93 1.198 -1.82601e-06 -1.66218e-07 1.18772e-06 -9.38369e-05
127 1 Au 0 8.471 1.198 6.73011e-07 -5.37675e-07 5.32679e-07 3.30803e-05
128 1 Au 2.934 8.471 1.198 1.11428e-06 -8.80469e-09 -1.70066e-07 -3.698e-05
129 1 Au 5.869 8.471 1.198 -1.21822e-06 2.05635e-06 9.13192e-06 -0.000216286
130 1 Au 8.803 8.471 1.198 -2.61993e-06 -5.38609e-07 6.81135e-06 -0.000187849
131 1 Au 11.738 8.471 1.198 -3.37803e-07 -1.50078e-06 2.8188e-06 -0.000118581
132 1 Au 14.672 8.471 1.198 2.88148e-07 -3.52035e-08 1.51107e-06 -0.000103535
133 1 Au 1.467 11.012 1.198 -1.19259e-06 1.66861e-06 4.91596e-06 -0.000140513
134 1 Au 4.402 11.012 1.198 -2.18954e-07 2.22026e-07 2.39544e-07 1.25001e-05
135 1 Au 7.336 11.012 1.198 1.34437e-06 -8.43804e-07 6.95037e-06 -0.000198766
136 1 Au 10.271 11.012 1.198 -1.78043e-06 9.40445e-07 3.86558e-07 -8.62313e-05
137 1 Au 13.205 11.012 1.198 -1.21878e-06 4.72516e-07 3.77667e-06 -0.000128511
138 1 Au 16.14 11.012 1.198 8.50336e-07 -3.20247e-07 3.62124e-06 -0.000137237
139 1 Au 0 13.554 1.198 4.58849e-07 6.68111e-07 1.00017e-05 -0.000229735
140 1 Au 2.934 13.554 1.198 -6.47647e-07 6.24073e-08 -2.87586e-08 -1.75482e-05
141 1 Au 5.869 13.554 1.198 1.46939e-07 -1.66975e-07 2.25898e-08 -9.16843e-06
142 1 Au 8.803 13.554 1.198 8.60352e-08 -2.3873e-06 7.08111e-07 -6.4414e-05
143 1 Au 11.738 13.554 1.198 6.02486e-07 -1.97991e-07 2.50605e-06 -0.000112741
144 1 Au 14.672 13.554 1.198 6.95262e-07 6.68214e-07 3.60909e-06 -0.00013374
145 1 Au 0.037 1.727 3.523 0.000149045 0.00209205 0.00505084 0.00473285
146 1 Au 3.046 1.6 3.614 -0.00019002 0.0024777 0.00337903 0.00433469
147 1 Au 5.838 1.796 3.513 0.000186865 -0.000944832 0.0125506 0.00702927
148 1 Au 8.816 1.754 3.388 0.00205423 -0.00109985 0.0116681 0.00707044
149 1 Au 11.773 1.634 3.404 -0.000321742 0.00177027 0.0131207 0.00736063
150 1 Au 14.67 1.783 3.607 -0.00103543 0.000430541 0.00154047 0.00343272
151 1 Au 1.552 4.216 3.572 0.000989891 -0.000638778 0.00968977 0.00662207
152 1 Au 4.35 4.176 3.609 8.05622e-05 -0.000112457 0.0119197 0.00694706
153 1 Au 7.268 4.275 3.509 0.00115483 -0.000390845 0.00389557 0.00415113
154 1 Au 10.295 4.282 3.7 0.000956351 -0.00263119 0.012178 0.00794613
155 1 Au 13.137 4.338 3.688 -0.00186299 -0.00176432 0.00660806 0.00625241
156 1 Au 16.03 4.042 3.476 0.000663612 0.00106441 0.009249 0.00614465
157 1 Au -0.089 6.804 3.63 0.00130299 0.000414943 0.00282469 0.00476554
158 1 Au 3.074 6.76 3.403 -0.00200363 0.000919958 0.00547479 0.00512469
159 1 Au 5.952 6.798 3.649 -0.00164099 0.00218451 0.00561823 0.00513306
160 1 Au 8.764 6.692 3.525 0.00174504 0.00152666 0.0121862 0.0069488
161 1 Au 11.735 6.794 3.633 0.000953938 -5.121e-05 0.0149307 0.00810576
162 1 Au 14.708 6.729 3.541 -0.000438447 -5.83211e-05 0.0101462 0.00681539
163 1 Au 1.592 9.359 3.52 0.000723851 -0.00136001 0.00340602 0.00459526
164 1 Au 4.55 9.229 3.598 -0.000368183 0.001459 0.0137784 0.00780768
165 1 Au 7.445 9.349 3.665 0.000105931 -2.43431e-05 0.0168283 0.00850421
166 1 Au 10.271 9.322 3.668 -6.67308e-05 0.00228882 0.00639136 0.00600125
167 1 Au 13.227 9.311 3.55 -0.000298644 -0.00125946 0.00574286 0.0053501
168 1 Au 16.136 9.432 3.544 0.000366785 -0.000529952 0.00667596 0.00552864
169 1 Au 0.07 11.971 3.572 0.000243142 0.00036182 0.00655847 0.00517447
170 1 Au 2.874 11.904 3.64 0.00345184 0.000129419 0.00440169 0.00511728
171 1 Au 5.883 11.81 3.485 -0.00110427 -0.00135852 0.00599641 0.0053589
172 1 Au 8.93 11.891 3.513 0.000701131 -0.000940617 0.0136177 0.00746535
173 1 Au 11.957 11.875 3.45 -0.0012261 -7.47127e-05 0.00553605 0.00502859
174 1 Au 14.758 12.051 3.668 -0.00023813 -5.22939e-05 0.00391041 0.00454879
175 1 Au 1.531 14.473 3.511 0.000512314 -0.000800808 0.0066593 0.00499718
176 1 Au 4.554 14.332 3.623 -0.00014054 -0.000202122 -0.000301904 0.00123042
177 1 Au 7.437 14.428 3.639 0.000982776 0.00138734 0.0015039 0.00368449
178 1 Au 10.403 14.336 3.532 -0.000850689 0.00097033 0.0017477 0.00361137
179 1 Au 13.366 14.573 3.573 0.000946111 -0.00096872 0.00605684 0.0051262
180 1 Au 16.26 14.454 3.502 2.94393e-05 -0.000190107 0.00526721 0.00452603
181 1 Au -0.126 -0.203 6.032 0.0344502 0.461599 1.70781 -0.0817694
182 1 Au 2.739 -0.388 5.93 0.793561 0.0775767 3.05747 -0.115505
183 1 Au 5.936 0.133 5.91 -0.346389 -1.02995 4.50498 -0.134881
184 1 Au 8.986 0.108 5.886 0.397589 -0.830747 5.89123 -0.149641
185 1 Au 11.675 0.317 6.168 -0.902329 -0.518892 6.50907 -0.167676
186 1 Au 14.643 -0.076 6.097 -0.680775 0.609746 4.46634 -0.13517
187 1 Au 1.633 2.358 5.927 0.737851 -0.548458 4.92343 -0.136676
188 1 Au 4.39 2.299 5.96 -0.456992 -0.237078 5.066 -0.137636
189 1 Au 7.264 2.379 6.027 0.178519 0.19654 3.14732 -0.111645
190 1 Au 10.161 2.627 5.832 -0.00850048 0.121965 5.46016 -0.137192
191 1 Au 13.161 2.599 5.815 0.952753 0.319076 6.50235 -0.154444
192 1 Au 16.287 2.556 6.147 -1.05786 -0.131006 9.4196 -0.194333
193 1 Au -0.036 4.991 6.061 0.0760146 0.172118 3.44723 -0.120946
194 1 Au 2.777 4.869 6.086 -0.0532924 0.405768 5.60787 -0.14859
195 1 Au 5.441 4.867 6.165 0.110176 0.326145 5.90451 -0.153822
196 1 Au 8.597 4.932 5.96 0.299491 -0.0399615 4.63138 -0.133684
197 1 Au 11.703 5.053 6.122 0.110046 -0.0229113 9.88534 -0.19894
198 1 Au 14.843 5.124 5.984 -0.896996 -0.0603712 8.42126 -0.180697
199 1 Au 1.606 7.477 5.716 -0.0674562 0.446582 6.18755 -0.150343
200 1 Au 4.642 7.524 6.12 -0.605052 -0.0304017 7.78513 -0.176293
201 1 Au 7.556 7.704 6.157 0.0974585 0.0789825 8.13563 -0.177032
202 1 Au 10.166 7.319 6.048 0.388744 0.794847 8.09184 -0.177312
203 1 Au 13.116 7.552 5.961 -0.219144 0.328197 10.2969 -0.195545
204 1 Au 16.04 7.745 5.955 0.0822901 -0.315643 5.65805 -0.150091
205 1 Au 0.087 10.033 5.932 0.859102 -0.652364 4.79086 -0.138496
206 1 Au 3.1 9.938 5.935 -0.799544 -0.125926 6.40617 -0.159326
207 1 Au 5.944 10.058 6.085 -0.135495 0.204758 6.32995 -0.155441
208 1 Au 8.819 10.101 6.22 0.711189 -1.23838 9.30627 -0.192418
209 1 Au 11.637 10.072 6.018 -0.150059 -0.618573 6.59478 -0.162009
210 1 Au 14.555 10.301 5.961 -0.402029 0.0357159 3.84223 -0.124283
211 1 Au 1.324 12.535 6.132 0.962373 -1.18043 4.45168 -0.134791
212 1 Au 4.389 12.493 5.893 0.27595 0.850482 7.55704 -0.170916
213 1 Au 7.463 12.647 5.929 -0.332874 0.666091 5.55287 -0.149075
214 1 Au 10.27 12.566 6.032 -0.10037 1.38428 7.70306 -0.173807
215 1 Au 13.137 12.928 5.865 -0.0983213 -0.178419 3.80212 -0.120513
216 1 Au 16.084 12.586 6.06 -0.250375 -0.231216 1.53918 -0.0791169
217 5 Cs 7.177 13.838 11.531 4.74421 18.2768 0.259639 1
218 5 Cs 7.318 8.401 10.355 12.8267 13.9717 -26.1514 1
219 5 Cs 4.169 13.593 8.996 -36.1459 20.6556 -26.2717 1
220 5 Cs 13.977 2.3 8.862 -7.87771 -25.9753 -13.553 1
221 5 Cs 10.212 14.085 8.93 21.3286 3.96133 -27.8882 1
222 5 Cs 14.752 6.248 9.346 5.9139 5.75546 -16.1012 1
223 5 Cs 1.426 7.763 9.138 -7.48716 -1.73554 -33.3392 1
224 5 Cs 4.913 5.524 10.348 -17.6513 -40.2597 -22.8214 1
225 4 Cl 1.526 14.645 11.058 34.4806 -4.13929 32.9093 -1
226 4 Cl 9.931 15.948 11.592 9.28509 -6.90533 2.23278 -1
227 4 Cl 15.669 15.319 10.648 -31.0601 8.6433 18.611 -1
228 5 Cs 13.321 16.287 -10.65 0.959109 9.8614 13.8242 1
229 5 Cs 15.807 11.202 -9.55 -15.7743 19.8619 17.2435 1
230 5 Cs 2.619 10.134 -9.426 -17.733 -2.58398 37.9258 1
231 5 Cs 2.957 5.742 -11.609 -4.92911 -14.1204 8.50626 1
232 5 Cs 5.422 8.326 -10.607 -0.322016 -17.8279 5.04475 1
233 5 Cs 4.21 0.563 -10.47 8.00484 6.96981 16.9586 1
234 5 Cs 8.623 10.545 -10.143 9.15488 6.65891 26.3465 1
235 5 Cs 11.259 13.486 -9.512 13.4723 16.0115 24.1909 1
236 4 Cl 14.787 13.688 -11.524 -9.56923 -16.5095 -10.7263 -1
237 4 Cl 12.988 3.671 -12.856 13.4582 -13.4504 -6.46777 -1
238 4 Cl 11.388 3.533 -8.84 -6.50357 -0.986713 -24.9444 -1
239 2 O 12.8541 7.14149 11.1483 -83.8494 71.0078 67.3721 -0.8476
240 3 H 11.8563 7.09387 11.1943 87.283 -4.13761 -9.65546 0.4238
241 3 H 13.0708 7.79797 11.8709 -6.63706 -65.1111 -67.4643 0.4238
242 2 O 7.84223 8.69228 13.6459 -72.106 -79.8452 42.4086 -0.8476
243 3 H 6.90535 8.91097 13.9187 90.5023 -8.23192 -34.8648 0.4238
244 3 H 8.05984 7.71888 13.7176 -7.68736 89.0694 -9.28265 0.4238
245 2 O 12.1526 12.9056 15.8733 124.913 -15.6531 14.9647 -0.8476
246 3 H 12.6378 12.263 16.4663 -47.3934 52.8613 -55.5527 0.4238
247 3 H 12.9022 13.2633 15.3163 -70.7099 -28.3764 46.8935 0.4238
248 2 O 13.201 14.5724 8.88848 79.471 -73.753 4.88185 -0.8476
249 3 H 13.695 14.2655 8.07495 -44.6869 31.5445 61.3709 0.4238
250 3 H 13.6933 14.0807 9.60676 -35.7468 45.4156 -64.3226 0.4238
251 2 O 11.0524 2.40609 9.01099 -128.146 -6.38722 20.8069 -0.8476
252 3 H 10.5155 2.23329 9.83676 64.8111 8.69194 -70.9868 0.4238
253 3 H 10.4294 2.45928 8.23058 74.9017 -4.83146 49.5238 0.4238
254 2 O 16.887 14.9833 15.3885 48.8477 87.7992 -84.9448 -0.8476
255 3 H 17.2833 14.6503 14.5329 -41.2419 9.48405 67.4751 0.4238
256 3 H 16.8273 15.9799 15.3322 -5.79745 -107.486 4.32802 0.4238
257 2 O 3.01453 13.9313 14.6331 64.1238 55.3145 120.371 -0.8476
258 3 H 3.4648 13.5043 15.4173 -56.8211 23.1125 -70.7604 0.4238
259 3 H 2.86958 14.8684 14.9504 -5.33685 -82.7539 -40.1947 0.4238
260 2 O -0.218541 13.4844 13.2186 -35.9765 -33.0822 -98.203 -0.8476
261 3 H 0.288717 13.7823 12.41 -31.7741 -8.27053 58.8609 0.4238
262 3 H -0.992001 12.9721 12.8453 71.4911 56.7183 30.924 0.4238
263 2 O 12.0564 1.09008 14.5843 -35.467 108.216 59.8453 -0.8476
264 3 H 11.2149 1.6256 14.5136 80.8439 -60.7571 -6.35027 0.4238
265 3 H 12.7484 1.63107 15.0623 -30.7609 -47.7586 -43.7521 0.4238
266 2 O 2.74281 0.819592 8.418 -82.874 76.5762 -27.4603 -0.8476
267 3 H 2.65578 1.42518 7.62699 14.6285 -62.0082 55.0685 0.4238
268 3 H 1.79908 0.911689 8.73564 76.016 -18.6704 -21.7227 0.4238
269 2 O 3.78955 4.18286 12.5376 31.8976 -34.8212 117.577 -0.8476
270 3 H 3.26578 3.39718 12.8668 31.2841 58.8496 -44.6119 0.4238
271 3 H 4.3905 4.37416 13.3136 -59.7756 -20.5526 -81.0263 0.4238
272 2 O 5.99628 12.8896 14.2037 -59.5615 91.5976 52.7064 -0.8476
273 3 H 5.09927 13.2346 13.9274 73.4738 -36.0317 19.0817 0.4238
274 3 H 6.31134 13.4121 14.9959 -19.7345 -51.2395 -82.5451 0.4238
275 2 O 10.0912 7.54103 11.4203 21.2641 108.189 -13.6608 -0.8476
276 3 H 10.1555 7.98636 10.5273 -7.33487 -46.0522 56.8848 0.4238
277 3 H 10.2246 8.24733 12.1155 -2.41808 -55.8772 -43.2207 0.4238
278 2 O 2.99184 10.1361 10.7659 -7.22935 96.1051 30.5454 -0.8476
279 3 H 3.11675 10.5833 11.6515 -22.9457 -47.6343 -85.9223 0.4238
280 3 H 2.63863 10.7515 10.0613 13.1848 -42.9983 40.7417 0.4238
281 2 O 2.40941 1.66289 12.9507 -29.305 -79.5486 39.364 -0.8476
282 3 H 2.2406 1.44534 13.9121 4.85964 26.322 -65.7035 0.4238
283 3 H 2.20496 0.820588 12.452 3.69217 66.8909 22.6033 0.4238
284 2 O 1.25216 7.60366 16.0742 19.9782 93.3779 -79.708 -0.8476
285 3 H 1.88251 7.54386 15.3002 -62.4358 -13.901 74.4613 0.4238
286 3 H 0.665911 8.40761 15.9743 41.8442 -78.3248 14.5466 0.4238
287 2 O 10.9964 11.2121 9.50715 66.6437 -80.3981 7.64209 -0.8476
288 3 H 11.8094 11.0592 10.069 -70.7668 27.5991 -54.7976 0.4238
289 3 H 11.1584 10.612 8.72387 -15.2431 62.912 50.2881 0.4238
290 2 O 15.8477 3.0237 13.4609 -134.394 5.15752 10.3417 -0.8476
291 3 H 15.2473 3.81609 13.5685 65.0861 -48.662 -15.4775 0.4238
292 3 H 15.2481 2.24373 13.2816 64.1233 49.482 11.3499 0.4238
293 2 O 6.8971 0.91786 14.9486 -16.4074 -62.9137 -102.087 -0.8476
294 3 H 6.12433 1.03159 14.3242 76.6327 0.922489 65.252 0.4238
295 3 H 7.62789 0.327772 14.6055 -55.4281 57.3207 34.7749 0.4238
296 2 O 14.6486 11.9732 8.97101 -73.4755 -126.26 -33.5501 -0.8476
297 3 H 14.2324 11.7774 8.08306 48.3371 31.6024 68.5493 0.4238
298 3 H 14.5299 11.0893 9.42356 24.5106 95.1667 -43.1457 0.4238
299 2 O 0.984161 4.27705 13.8885 -64.2041 71.6139 -57.4222 -0.8476
300 3 H 0.351055 5.03113 14.0633 47.7836 -75.8183 -7.57632 0.4238
301 3 H 0.798393 4.06214 12.9297 17.133 -5.56833 72.5577 0.4238
302 2 O 4.33655 14.2754 11.7257 -36.2749 76.7245 83.2813 -0.8476
303 3 H 4.53778 15.0556 12.3181 -19.4527 -65.9257 -63.4344 0.4238
304 3 H 3.35759 14.3735 11.9047 53.6811 -17.4849 -36.2122 0.4238
305 2 O 8.61753 11.5304 10.2871 78.8934 -18.2021 105.529 -0.8476
306 3 H 8.62132 11.4819 11.2859 -0.374352 2.71302 -104.062 0.4238
307 3 H 9.54862 11.3414 9.97506 -59.9076 16.322 0.226922 0.4238
308 2 O 16.904 5.69677 15.4786 110.944 15.4886 79.3284 -0.8476
309 3 H 17.4081 6.4854 15.8306 -49.9456 -68.8439 -33.3323 0.4238
310 3 H 17.5217 5.02127 15.8813 -54.7457 48.5889 -34.5394 0.4238
311 2 O 15.0655 9.09152 10.6405 -15.2586 66.2459 121.747 -0.8476
312 3 H 14.254 9.59184 10.9425 77.073 -45.5464 -44.7813 0.4238
313 3 H 15.7638 9.33592 11.3133 -60.605 -23.1411 -76.7913 0.4238
314 2 O 10.4465 5.60932 9.13468 32.987 37.0604 -58.6211 -0.8476
315 3 H 10.8673 5.06533 8.40873 -38.4792 40.7661 51.847 0.4238
316 3 H 10.4134 6.55372 8.80755 -5.55455 -75.8913 17.0744 0.4238
317 2 O 14.6041 0.632834 13.3938 -71.8427 -10.6766 -89.3341 -0.8476
318 3 H 13.6061 0.673291 13.3465 94.8024 2.78497 10.8727 0.4238
319 3 H 15.016 0.354344 12.5262 -16.2113 23.1562 63.7521 0.4238
320 2 O 14.908 12.5673 11.7553 -30.5748 96.2258 70.6028 -0.8476
321 3 H 14.3107 12.7952 12.5244 54.2793 -23.8242 -88.1422 0.4238
322 3 H 15.1903 13.4246 11.3248 -14.7387 -66.618 14.1113 0.4238
323 2 O 14.6272 5.19407 13.4632 -132.661 -39.3535 -45.2054 -0.8476
324 3 H 14.2203 5.22063 12.5501 46.8771 -5.94496 74.9327 0.4238
325 3 H 13.7873 4.94736 13.9466 74.5411 19.8273 -31.1774 0.4238
326 2 O 17.7237 1.87158 8.9959 -90.7148 -53.7539 -23.8855 -0.8476
327 3 H 17.1643 1.92886 8.16895 62.616 -7.23281 62.6499 0.4238
328 3 H 17.3512 1.08312 9.48544 32.2369 54.1361 -30.9008 0.4238
329 2 O 10.5164 9.05479 13.4079 -83.9308 -86.2032 24.7126 -0.8476
330 3 H 10.9007 8.23056 13.8237 -15.4039 64.4069 -23.1374 0.4238
331 3 H 9.52917 9.18181 13.5041 88.4372 -5.43981 -5.75436 0.4238
332 2 O 12.3063 13.5466 11.9352 -87.6688 88.144 114.063 -0.8476
333 3 H 12.2389 13.6293 12.9295 17.9089 -17.7315 -95.9158 0.4238
334 3 H 11.6458 14.2923 11.848 60.5098 -64.7282 -13.058 0.4238
335 2 O 11.5134 6.90253 14.6616 60.8827 -62.2289 65.7972 -0.8476
336 3 H 11.9504 7.06752 15.5458 -27.9622 -1.57364 -66.3942 0.4238
337 3 H 11.8177 5.95679 14.5477 -27.0827 67.8869 -0.866884 0.4238
338 2 O 12.1125 4.35946 14.4832 -79.0898 -58.5788 52.0216 -0.8476
339 3 H 11.5019 3.73312 13.9985 62.7917 62.2378 31.3429 0.4238
340 3 H 11.9842 4.18952 15.4603 23.2532 17.8811 -82.9216 0.4238
341 2 O 5.74883 10.7171 11.7211 -61.7666 92.6673 -49.3248 -0.8476
342 3 H 5.20751 11.3939 12.22 50.6442 -67.4064 -36.7177 0.4238
343 3 H 5.60635 10.9479 10.7586 12.8217 -30.3367 83.7674 0.4238
344 2 O 1.69671 10.0255 13.7509 25.8433 -44.7575 139.217 -0.8476
345 3 H 1.40295 10.6202 14.4993 20.5654 -38.954 -87.7016 0.4238
346 3 H 2.1237 9.19712 14.1134 -44.7005 87.3281 -55.1158 0.4238
347 2 O 1.83287 11.6095 9.07948 -67.031 -18.7615 -30.4422 -0.8476
348 3 H 1.72684 11.233 8.15915 10.4812 41.793 68.6746 0.4238
349 3 H 1.00603 12.0714 9.40038 73.6636 -28.2451 -30.4273 0.4238
350 2 O 12.7802 1.50008 11.5608 -40.3093 -93.0013 -24.3328 -0.8476
351 3 H 11.8573 1.14032 11.6979 66.1767 39.3993 -14.1193 0.4238
352 3 H 13.3082 0.753469 11.1561 -31.3971 67.2903 31.664 0.4238
353 2 O 8.92519 14.4099 14.1477 62.1187 64.4439 50.4077 -0.8476
354 3 H 9.043 14.4119 15.1408 -12.7601 -16.2189 -61.9219 0.4238
355 3 H 9.59598 14.9947 13.6917 -61.9185 -50.9854 24.8705 0.4238
356 2 O 17.2686 5.22448 8.69124 29.4188 -108.86 69.9177 -0.8476
357 3 H 18.1753 4.92554 8.9885 -62.8428 27.5628 -37.276 0.4238
358 3 H 16.8288 4.32641 8.70061 44.2997 83.2312 -19.771 0.4238
359 2 O 8.87436 10.8817 15.4391 -49.3157 -52.9821 -98.4762 -0.8476
360 3 H 8.34539 10.042 15.3157 58.3285 82.9214 14.8231 0.4238
361 3 H 9.13909 11.2838 14.5626 -13.6565 -27.1849 89.2885 0.4238
362 2 O 13.222 4.05723 11.1371 -109.919 -32.8267 30.7893 -0.8476
363 3 H 12.9798 3.12418 11.4031 29.9855 57.7005 -21.1673 0.4238
364 3 H 12.3243 4.49011 11.2187 76.9189 -37.1611 -8.08031 0.4238
365 2 O 13.4814 10.0292 15.9337 28.0647 -103.646 -27.16 -0.8476
366 3 H 13.9854 9.9243 15.0764 -37.8627 25.4079 75.8663 0.4238
367 3 H 13.26 9.12732 16.3046 16.3167 73.9673 -33.2306 0.4238
368 2 O 12.8182 8.7952 8.79773 -31.2194 -130.541 21.9989 -0.8476
369 3 H 12.7494 8.1577 9.5651 16.8862 66.9507 -69.4294 0.4238
370 3 H 12.8487 8.31221 7.92263 3.24293 59.5661 53.1293 0.4238
371 2 O 10.6121 4.88196 11.5923 -12.3158 129.313 -42.5068 -0.8476
372 3 H 10.6287 5.23094 10.6554 -4.13408 -40.0236 49.3631 0.4238
373 3 H 10.5484 5.79465 11.996 4.76296 -82.1791 -29.1991 0.4238
374 2 O 8.61035 3.26646 12.1612 88.7551 29.5422 -76.3485 -0.8476
375 3 H 9.11123 2.57256 11.6439 -43.7141 36.0718 52.9981 0.4238
376 3 H 9.18552 4.07442 12.0332 -39.0037 -74.7538 15.2989 0.4238
377 2 O 6.32925 2.2664 11.4066 36.4268 79.8244 -63.1271 -0.8476
378 3 H 7.18923 2.75657 11.5487 -63.8297 -52.6671 -0.361217 0.4238
379 3 H 5.87775 2.50601 10.5471 30.5479 -34.7539 67.6833 0.4238
380 2 O 1.64475 4.55779 16.4315 20.1267 -110.034 -23.1812 -0.8476
381 3 H 1.42221 3.82149 17.0705 12.9653 66.1857 -42.2635 0.4238
382 3 H 1.86283 4.13302 15.5528 -30.1559 44.9269 60.4378 0.4238
383 2 O 7.79832 4.8682 9.56259 101.181 45.4018 90.4099 -0.8476
384 3 H 8.6976 4.94614 9.13223 -75.7148 -8.38687 13.0504 0.4238
385 3 H 8.01824 5.16759 10.491 -21.0047 -41.0418 -95.7005 0.4238
386 2 O 2.01766 1.47552 15.398 -5.02941 75.9527 76.6903 -0.8476
387 3 H 1.14113 1.8528 15.6969 76.6488 -42.0384 -38.8355 0.4238
388 3 H 2.73897 1.84584 15.9833 -49.5366 -37.7853 -51.8314 0.4238
389 2 O 7.74614 2.17125 9.11454 84.0046 108.462 22.3118 -0.8476
390 3 H 8.72576 2.23041 8.92254 -106.579 -17.1323 6.24762 0.4238
391 3 H 7.45071 3.1098 9.29296 19.3641 -84.7127 -29.1181 0.4238
392 2 O 4.61412 2.63189 9.27292 -9.34201 -76.7524 -28.9808 -0.8476
393 3 H 5.00364 2.45991 8.3681 -33.8692 18.2215 69.552 0.4238
394 3 H 4.00351 1.908 9.59408 46.318 63.8317 -38.3867 0.4238
395 2 O 10.0193 8.30747 8.83248 45.2682 52.9443 -23.5505 -0.8476
396 3 H 10.9706 8.61551 8.84651 -77.4719 -25.3797 -18.3607 0.4238
397 3 H 9.52662 8.64603 8.03084 41.7029 -33.4968 48.0928 0.4238
398 2 O 2.08732 4.58162 9.49117 -5.08712 -99.5751 20.6202 -0.8476
399 3 H 1.78781 4.02129 10.2634 19.8621 43.6968 -56.2399 0.4238
400 3 H 2.41306 3.91787 8.81787 -27.3155 60.3684 44.6958 0.4238
401 2 O 1.01061 3.0982 11.56 31.004 -78.2615 -17.5398 -0.8476
402 3 H 1.60205 2.53325 12.1353 -43.7704 33.2446 -35.6942 0.4238
403 3 H 0.609058 2.54081 10.8333 26.9176 41.915 59.7119 0.4238
404 2 O 15.6132 10.8993 14.3487 48.0109 66.3434 -70.8038 -0.8476
405 3 H 16.1787 10.6602 13.5594 -55.7018 22.8537 77.0104 0.4238
406 3 H 15.5446 11.8883 14.48 6.45238 -90.2611 -3.46131 0.4238
407 2 O 4.00579 5.3239 -14.8213 -83.0029 84.302 -10.0304 -0.8476
408 3 H 4.10312 6.30094 -14.6318 -10.786 -82.488 -15.4784 0.4238
409 3 H 3.07978 5.11032 -15.1326 68.195 6.24271 24.1312 0.4238
410 2 O 12.0267 15.9277 -7.84317 74.5999 41.4841 -88.8435 -0.8476
411 3 H 11.6827 16.7693 -8.25955 19.9922 -57.009 55.5785 0.4238
412 3 H 13.0081 15.735 -7.81336 -94.3678 19.8691 25.8072 0.4238
413 2 O 14.2268 11.2432 -13.8453 -79.4687 -64.524 -1.07618 -0.8476
414 3 H 14.1757 10.5273 -14.5416 5.25223 68.3539 42.4126 0.4238
415 3 H 13.4259 11.3396 -13.2543 78.6733 -2.29179 -47.2082 0.4238
416 2 O 18.0355 14.9525 -8.93419 27.1841 -62.9062 -119.799 -0.8476
417 3 H 18.3152 15.249 -9.84735 -26.7736 -22.2782 88.5695 0.4238
418 3 H 18.1323 13.9591 -8.87178 -9.80529 70.3056 14.7155 0.4238
419 2 O 12.982 11.1398 -8.98405 -13.1777 -47.5455 82.7132 -0.8476
420 3 H 12.7885 10.1664 -8.86144 18.4846 87.3888 -4.43658 0.4238
421 3 H 13.0483 11.5908 -8.09397 -2.82257 -39.4748 -65.7015 0.4238
422 2 O 1.26525 2.35313 -13.8857 -27.1862 -116.704 39.1064 -0.8476
423 3 H 1.86083 1.58423 -13.6532 -45.0531 76.5687 -29.7273 0.4238
424 3 H 0.350271 1.95013 -13.8653 72.5546 46.9839 -9.35829 0.4238
425 2 O 7.24893 7.16242 -15.3777 10.7269 88.0034 -76.6569 -0.8476
426 3 H 8.09539 7.67702 -15.5145 -58.0324 -58.8013 24.2626 0.4238
427 3 H 6.65647 7.35922 -16.1589 50.5799 -34.2017 81.4874 0.4238
428 2 O 7.07431 14.2548 -8.68381 23.0558 52.8101 56.9013 -0.8476
429 3 H 6.97088 13.8125 -7.79293 7.43672 36.5537 -60.6513 0.4238
430 3 H 7.24219 15.2301 -8.54011 -18.2583 -85.515 1.84037 0.4238
431 2 O 5.38993 3.54497 -9.04314 -14.8255 9.77879 95.8047 -0.8476
432 3 H 6.17358 3.5693 -8.4224 -55.7655 -6.13402 -49.0135 0.4238
433 3 H 4.58633 3.52221 -8.44841 67.2563 -1.37303 -46.1551 0.4238
434 2 O 0.310651 4.27804 -9.79514 107.095 -17.9065 4.75974 -0.8476
435 3 H 0.94905 3.72293 -10.3283 -53.6238 40.3766 44.4388 0.4238
436 3 H 0.738496 4.54231 -8.93078 -42.2789 -25.7904 -62.7303 0.4238
437 2 O 9.09759 14.0889 -15.4683 87.9873 53.0193 44.3695 -0.8476
438 3 H 10.0145 13.7274 -15.2988 -78.1363 19.4703 -17.676 0.4238