ITEM: TIMESTEP
0
ITEM: NUMBER OF ATOMS
915
ITEM: BOX BOUNDS pp pp ff
0.0000000000000000e+00 1.6869000000000000e+01
0.0000000000000000e+00 1.4609000000000000e+01
0.0000000000000000e+00 4.1478000000000002e+01
ITEM: ATOMS id element xu yu zu fx fy fz q
1 Pt           1.40569997           0.81160003          35.73899841  -0.0029070286619623  -0.0708481683166859    -1.21060279857671   -0.318847726796423
2 Pt            4.2171998           0.81160003          35.73899841   0.0579753388080599  -0.0883401759863738    -1.16447150487441   -0.315726214888012
3 Pt           7.02859974           0.81160003          35.73899841  -0.0389704512590682  -0.0208256673869782    -1.18743852649618   -0.319210962964192
4 Pt           9.84009933           0.81160003          35.73899841  -0.0093459586939243   0.0426357603390046    -1.22433402590835   -0.321501597127582
5 Pt          12.65159988           0.81160003          35.73899841  0.00486808112398624  0.00159805804488131    -1.06665568132538   -0.300781448717406
6 Pt          15.46299934           0.81160003          35.73899841   0.0204473114793939  -0.0438669613676094    -1.17768601250281   -0.316556211410911
7 Pt                    0           3.24640012          35.73899841  -0.0282011138433478  -0.0231720973445586   -0.849527721244107   -0.268596257405878
8 Pt           2.81149983           3.24640012          35.73899841 -0.00132761324966164   0.0047147159009135   -0.509782927995958   -0.216092305972473
9 Pt           5.62290001           3.24640012          35.73899841   0.0325690282058064   0.0356117323486239    -1.07524579818051    -0.30276288835379
10 Pt            8.4343996           3.24640012          35.73899841   0.0181481075503622  -0.0161695592757015    -1.17835542011365   -0.316936150385155
11 Pt          11.24580002           3.24640012          35.73899841  -0.0196497787014715  0.00240395813273077    -1.13442946731216   -0.312003392680839
12 Pt          14.05730057           3.24640012          35.73899841  -0.0204592299757904   0.0199111043524157    -1.05814209943648   -0.299960794742871
13 Pt           1.40569997           5.68120003          35.73899841  -0.0151405488978581   0.0219218433133521   -0.860313945366778   -0.270053669941049
14 Pt            4.2171998           5.68120003          35.73899841   0.0612558197304306   -0.033922115036761   -0.995152180931547   -0.290645765520554
15 Pt           7.02859974           5.68120003          35.73899841  -0.0350196453631415  -0.0498697088658582    -1.04090894636528   -0.298135727637237
16 Pt           9.84009933           5.68120003          35.73899841   0.0876691885186845   0.0134758905077429    -1.18675269924424    -0.31846429012823
17 Pt          12.65159988           5.68120003          35.73899841  -0.0428108427112194   0.0069359519591254    -1.26500852546508    -0.32951575266029
18 Pt          15.46299934           5.68120003          35.73899841  -0.0137702605207048   0.0389092800013471     -1.0698806566388   -0.302497277042499
19 Pt                    0           8.11599922          35.73899841  -0.0862264062053759  -0.0400800193385402    -1.12448798990187   -0.307686697259767
20 Pt           2.81149983           8.11599922          35.73899841 -0.00970710793051637  -0.0271496109107903   -0.528912430740861   -0.216599031985644
21 Pt           5.62290001           8.11599922          35.73899841  0.00260164166584405  -0.0255132705177439   -0.777470345141572   -0.256406511770642
22 Pt            8.4343996           8.11599922          35.73899841    0.022838295170904  -0.0171181993217737   -0.570529368033571   -0.226859282510335
23 Pt          11.24580002           8.11599922          35.73899841   0.0279672829613799  -0.0500997145424779    -1.14598566262914   -0.313596164211753
24 Pt          14.05730057           8.11599922          35.73899841   0.0228993036763621  0.00378604866962929     -1.1855608461582   -0.318840659185185
25 Pt           1.40569997          10.55079937          35.73899841  -0.0258934376901035 -0.00387151750505279   -0.509593012898806   -0.212588021783759
26 Pt            4.2171998          10.55079937          35.73899841   0.0381177001377408  0.00994716559346386    -0.62603155840237   -0.232065737532604
27 Pt           7.02859974          10.55079937          35.73899841    0.038433478700669   0.0607220364016748   -0.986461843199763    -0.28876038862065
28 Pt           9.84009933          10.55079937          35.73899841   0.0200771387966857   0.0432438785902983    -1.10990471723387    -0.30801491619147
29 Pt          12.65159988          10.55079937          35.73899841   -0.033980449988189 -0.00500535714869111    -1.24698498911335   -0.325061709671041
30 Pt          15.46299934          10.55079937          35.73899841  -0.0503187426104777  -0.0122873019244879     -1.2504165872953   -0.322505401715191
31 Pt                    0          12.98560047          35.73899841  -0.0342261152742189   0.0743278633659141    -1.08211499714667   -0.303833746601514
32 Pt           2.81149983          12.98560047          35.73899841   0.0109107409043871   0.0802627630244271   -0.948950633716888   -0.284622413759392
33 Pt           5.62290001          12.98560047          35.73899841 -0.00564827688132403   0.0762626819910988    -1.23480095010088   -0.324462545807143
34 Pt            8.4343996          12.98560047          35.73899841 -0.00517299715140501  -0.0196985053598252    -1.10960002665907   -0.308190647706656
35 Pt          11.24580002          12.98560047          35.73899841 -0.00834612659292564  -0.0135961592244773    -1.06154142469067   -0.301122626607444
36 Pt          14.05730057          12.98560047          35.73899841   0.0205756191623623 -0.00135601008694728    -1.09851690963971   -0.306183248812483
37 Pt                    0           1.62320006          38.03450012 8.67326021360159e-06 -0.000156185295814795 -0.00308249681603464   0.0172470740636377
38 Pt           2.81149983           1.62320006          38.03450012 7.02971403036531e-06 -0.000347014216888054 -0.00286423500893672   0.0165306521788151
39 Pt           5.62290001           1.62320006          38.03450012 1.44710504864492e-05 4.51517866510703e-05 -0.00316773212751629   0.0175576845704858
40 Pt            8.4343996           1.62320006          38.03450012  -2.597559223434e-05 -4.96410935274987e-05 -0.00339388310930186   0.0182081632004841
41 Pt          11.24580002           1.62320006          38.03450012 -4.07115031094367e-05 -4.20482399252954e-05 -0.00325995876450973   0.0177979870098443
42 Pt          14.05730057           1.62320006          38.03450012 5.20615414874149e-05 -2.89998381983437e-05 -0.00326888227352725   0.0177518814697453
43 Pt           1.40569997           4.05799961          38.03450012 -0.00018734253093406 0.000101621225241716 -0.00223521775749141   0.0146855464534665
44 Pt            4.2171998           4.05799961          38.03450012 0.000220556072630215 6.18296429109474e-05  -0.0023067060177377   0.0150178561124892
45 Pt           7.02859974           4.05799961          38.03450012 0.000132860482208694 -7.09198132456892e-05 -0.00300360938537373   0.0172092639121741
46 Pt           9.84009933           4.05799961          38.03450012 -7.8435096953817e-05 5.17277937282172e-05  -0.0032799629629278   0.0179108937741528
47 Pt          12.65159988           4.05799961          38.03450012 -1.83921463072516e-05 8.05754591473493e-05   -0.003227991680238   0.0177346945252389
48 Pt          15.46299934           4.05799961          38.03450012 -9.3876242731498e-05 6.70486550493129e-05 -0.00296783157449198   0.0169508079143324
49 Pt                    0           6.49280024          38.03450012 -6.64479727418587e-05 3.22162546484026e-05 -0.00271107921868604   0.0163413469256596
50 Pt           2.81149983           6.49280024          38.03450012 5.75536016581892e-05 -0.000225362870383719 -0.00224540078103472   0.0147807245221857
51 Pt           5.62290001           6.49280024          38.03450012 1.99737416713816e-05 -8.43773300106453e-05 -0.00245453076667292   0.0155345842540133
52 Pt            8.4343996           6.49280024          38.03450012 3.86119881405572e-05 -0.000371199404321099 -0.00274199269216419    0.016213168696975
53 Pt          11.24580002           6.49280024          38.03450012  7.0428680085978e-05 -3.95923862122532e-05 -0.00283831692557218   0.0169104429624803
54 Pt          14.05730057           6.49280024          38.03450012 -0.000126779806637107 -2.3094086049992e-05 -0.00331215821315964    0.017898392336292
55 Pt           1.40569997           8.92759991          38.03450012 -0.000286880994191141 -0.000169460277590611 -0.00213269321265583   0.0142718534230043
56 Pt            4.2171998           8.92759991          38.03450012 0.000145470348683723 -8.26760759688691e-06 -0.00191520642653481    0.013608815661892
57 Pt           7.02859974           8.92759991          38.03450012 -0.000111154579322639 0.000184481827261197 -0.00241466044955613   0.0151523100277644
58 Pt           9.84009933           8.92759991          38.03450012 0.000296561086339365 0.000184413069216536 -0.00280087399161348   0.0163139944475553
59 Pt          12.65159988           8.92759991          38.03450012 1.76775250803766e-05 5.31887550178054e-05 -0.00344427876361496   0.0183116977059736
60 Pt          15.46299934           8.92759991          38.03450012 -3.06505310356455e-05 0.000110280180117555 -0.00317155387342561   0.0176819719217403
61 Pt                    0          11.36240005          38.03450012 -0.000360505392535403  0.00013464345981796 -0.00288158720520647   0.0166315919178219
62 Pt           2.81149983          11.36240005          38.03450012 5.51068461713872e-05 0.000240160467525907 -0.00225131648156409   0.0145907574635143
63 Pt           5.62290001          11.36240005          38.03450012 0.000172349546475926  0.00022296323978395 -0.00276068787702974   0.0163601283151683
64 Pt            8.4343996          11.36240005          38.03450012  4.3270967650485e-05 3.85491196882455e-05 -0.00278909177963816   0.0166295206419034
65 Pt          11.24580002          11.36240005          38.03450012 7.93250217890863e-05 -6.64339067266866e-05 -0.00306809419818122   0.0174192215394925
66 Pt          14.05730057          11.36240005          38.03450012 -8.86165016323077e-06 -7.91661045259161e-05  -0.0034846798960784   0.0184394393402851
67 Pt           1.40569997          13.79719925          38.03450012 -4.68417597882149e-05 5.19507647501604e-05 -0.00281738683469656   0.0167114828552353
68 Pt            4.2171998          13.79719925          38.03450012  6.3514367590331e-05 -1.32298516028219e-05 -0.00271736656550641   0.0164999976976254
69 Pt           7.02859974          13.79719925          38.03450012 3.91933171629958e-05 -2.01231795176307e-05   -0.003189978960428   0.0176870480747303
70 Pt           9.84009933          13.79719925          38.03450012 -3.10997566398004e-05 0.000118015459294639 -0.00338608962277084   0.0180747667958643
71 Pt          12.65159988          13.79719925          38.03450012 3.31915092488287e-06 -1.07612953957874e-05 -0.00322196762165641   0.0176572200956602
72 Pt          15.46299934          13.79719925          38.03450012 -4.70889389816785e-05 7.51260290829273e-06 -0.00293133547050719   0.0170702997574272
73 Pt                    0                    0          40.33010101 -9.12027667791375e-08 5.13225878157369e-08 -5.54001314196661e-06  -0.0006933816726395
74 Pt           2.81149983                    0          40.33010101 4.90098453878016e-09 -6.80023107675052e-09 -5.12781502228278e-06 -0.000667495258022635
75 Pt           5.62290001                    0          40.33010101 2.15941452561943e-07 1.68468469947641e-07  -5.980431625359e-06 -0.000719606355355756
76 Pt            8.4343996                    0          40.33010101 2.99905403675119e-08 2.43165675659467e-08 -6.46066259113954e-06 -0.000753044423976154
77 Pt          11.24580002                    0          40.33010101  1.6559987327425e-08 -7.71310411270324e-08 -6.74752226103795e-06 -0.000767887257741198
78 Pt          14.05730057                    0          40.33010101 -1.78361492112444e-07 6.05793220096044e-08 -6.34520985750953e-06 -0.000743949996170973
79 Pt           1.40569997           2.43479991          40.33010101  1.4723606911511e-07 -5.15915426954901e-08 -6.47464650228919e-06 -0.00074469182973174
80 Pt            4.2171998           2.43479991          40.33010101 -2.17315358271355e-07 -1.32860393551997e-07 -6.22202523093845e-06 -0.000731871745103113
81 Pt           7.02859974           2.43479991          40.33010101 8.73745283706019e-08 -1.55022547747969e-07 -6.1750438103693e-06 -0.000734559066205918
82 Pt           9.84009933           2.43479991          40.33010101  1.7719792873037e-08 2.96455330520777e-08 -6.8350331861124e-06 -0.000770980362406165
83 Pt          12.65159988           2.43479991          40.33010101 -1.01635206918209e-08 -1.45783193203454e-08 -7.07327223768475e-06 -0.000782573637477274
84 Pt          15.46299934           2.43479991          40.33010101 -2.10726912681598e-08 1.08498345153703e-08 -6.61421065862156e-06 -0.000755990245373907
85 Pt                    0           4.86959982          40.33010101 -2.94394396871092e-07 -1.80775449051813e-08 -5.22769585661223e-06 -0.00067323387557279
86 Pt           2.81149983           4.86959982          40.33010101 -2.83468791194542e-08 -3.68856856114118e-07 -4.9537576892474e-06 -0.000650493843935403
87 Pt           5.62290001           4.86959982          40.33010101 2.92819982872315e-07 -1.05318947982964e-07 -4.81387718500979e-06 -0.000643757516524741
88 Pt            8.4343996           4.86959982          40.33010101  5.0442625554363e-08 -1.9335558856199e-07 -5.1849390644557e-06 -0.000677458990761201
89 Pt          11.24580002           4.86959982          40.33010101 -2.46214234307064e-08 -3.08457956507638e-07 -6.03913941654235e-06 -0.000722777783986238
90 Pt          14.05730057           4.86959982          40.33010101 -1.28791070433143e-08 2.54673817899978e-08 -6.22520261378744e-06 -0.000737205868940896
91 Pt           1.40569997           7.30439949          40.33010101  9.3461566521281e-08 -9.78512101105546e-08 -4.9417814747891e-06 -0.000648533873971444
92 Pt            4.2171998           7.30439949          40.33010101 -8.0484095298691e-08 -1.36944207241585e-08 -4.71986674126637e-06 -0.000631209111117997
93 Pt           7.02859974           7.30439949          40.33010101 4.29765852745721e-07 1.42108129352925e-07 -6.20726254635898e-06 -0.000726019795460241
94 Pt           9.84009933           7.30439949          40.33010101 -3.16039905916484e-07 2.76567074593947e-07 -6.63711322920977e-06 -0.000752740745197718
95 Pt          12.65159988           7.30439949          40.33010101  2.2540801838379e-07 2.52389192610616e-07 -6.21376063940382e-06 -0.000735514819139166
96 Pt          15.46299934           7.30439949          40.33010101 -3.63296499713611e-07 1.61555775487951e-08 -6.30429275563322e-06 -0.000737035245297848
97 Pt                    0           9.73919964          40.33010101 -5.31471054430656e-08 3.23897737987343e-07 -5.53567622796113e-06 -0.00069270372276671
98 Pt           2.81149983           9.73919964          40.33010101 -2.36818033248481e-07 1.28384877811188e-07 -6.16733636690448e-06 -0.000718529166187427
99 Pt           5.62290001           9.73919964          40.33010101 4.34530183542764e-08 3.13355686041078e-07 -4.85133374244448e-06 -0.000645725673229937
100 Pt            8.4343996           9.73919964          40.33010101 1.50204020014349e-07 -3.28129502851673e-07 -6.13322910054028e-06 -0.000725493126407448
101 Pt          11.24580002           9.73919964          40.33010101  2.3131455009137e-07 -4.35305590767876e-08 -5.63222128065965e-06 -0.000704300582186977
102 Pt          14.05730057           9.73919964          40.33010101 -1.46915090429107e-07 -4.00651796665292e-08 -6.3479230623057e-06 -0.000747640663111365
103 Pt           1.40569997          12.17399979          40.33010101 -2.56233343410633e-07 -2.24958567134442e-07 -5.96027199239783e-06 -0.000714972230320701
104 Pt            4.2171998          12.17399979          40.33010101 1.39126555409535e-07 -1.10946265228891e-07 -5.01981318591069e-06 -0.000659286981459645
105 Pt           7.02859974          12.17399979          40.33010101  1.0194553084593e-07 1.58503581263113e-07 -5.35507014814257e-06 -0.000683594412957109
106 Pt           9.84009933          12.17399979          40.33010101 1.69243842064761e-07 2.80732211587237e-07 -6.43715931262688e-06 -0.000744712795531899
107 Pt          12.65159988          12.17399979          40.33010101 1.17089534113855e-07  7.7268521949334e-08 -6.59754203621701e-06 -0.000759456573916066
108 Pt          15.46299934          12.17399979          40.33010101 -2.70180184543569e-07 5.63467019747149e-09 -5.66990703097723e-06 -0.000706667208877937
109 Pt           1.40569997           0.81160003           1.14759994  3.0177509499253e-07 -5.1253263470052e-07  6.4773125493655e-06   0.0007428274610215
110 Pt            4.2171998           0.81160003           1.14759994 -4.76096249864328e-09 -3.98738667185613e-07 6.14944940070047e-06 0.000730028459074494
111 Pt           7.02859974           0.81160003           1.14759994 3.97347373808795e-08 -1.07566428580496e-07 7.34040097601139e-06 0.000792439656871036
112 Pt           9.84009933           0.81160003           1.14759994 -1.19856817881506e-07 -1.92228360982507e-07  6.1807188405174e-06 0.000727875788693849
113 Pt          12.65159988           0.81160003           1.14759994 -1.80505091663543e-07 -2.47553070838547e-07 5.29333564101342e-06 0.000671784584411694
114 Pt          15.46299934           0.81160003           1.14759994 -1.19972299008378e-08 -8.33916709602579e-08 5.82774868131977e-06 0.000696249326655601
115 Pt                    0           3.24640012           1.14759994 -1.46198289496245e-07 8.28927853014725e-08 5.29258229725864e-06 0.000664707229490136
116 Pt           2.81149983           3.24640012           1.14759994 4.21664779603442e-08 -1.69202509606848e-07 5.06636364445303e-06 0.000654458107444078
117 Pt           5.62290001           3.24640012           1.14759994 4.86159172579346e-07 3.42785719737261e-08 6.70571587425028e-06 0.000753191377244666
118 Pt            8.4343996           3.24640012           1.14759994 9.79914141244199e-08 -5.32502757144792e-08  6.1077581830241e-06 0.000728387688708892
119 Pt          11.24580002           3.24640012           1.14759994 -2.34351128236693e-07 1.23158923777495e-07 6.01567151118097e-06 0.000720811192560539
120 Pt          14.05730057           3.24640012           1.14759994 -2.01561866675845e-07  1.9585813528673e-07 5.43885371007102e-06 0.000677988965893522
121 Pt           1.40569997           5.68120003           1.14759994 -1.57934234107328e-07 1.55957557404058e-07 5.21565327209008e-06 0.000665059557194425
122 Pt            4.2171998           5.68120003           1.14759994 4.32712643347546e-07 1.24016754763228e-07  6.3706639543385e-06 0.000734530221511959
123 Pt           7.02859974           5.68120003           1.14759994 -1.04353669337737e-07 3.24828449152916e-07 6.21771013102802e-06 0.000739951021704599
124 Pt           9.84009933           5.68120003           1.14759994 8.35541349899584e-08 3.00042275290683e-07 6.24936114260647e-06 0.000746884520310909
125 Pt          12.65159988           5.68120003           1.14759994 -2.68327720578149e-07  2.3648621713737e-07 6.12791669339214e-06 0.000731582154225613
126 Pt          15.46299934           5.68120003           1.14759994 2.70001683097158e-08 1.72431040193334e-07  5.2568980748281e-06  0.00067067532504736
127 Pt                    0           8.11599922           1.14759994 8.74342331145915e-08 2.22558903186678e-09 5.67932636743478e-06 0.000696811225801924
128 Pt           2.81149983           8.11599922           1.14759994 1.65858660182818e-08 1.06769105913685e-07 6.11274810006014e-06 0.000721901243698281
129 Pt           5.62290001           8.11599922           1.14759994 2.62877224855074e-07 4.38030745288712e-08 7.83191314088945e-06 0.000818057046611587
130 Pt            8.4343996           8.11599922           1.14759994 3.26390595374889e-07 -2.23343863702967e-07 8.02000078903931e-06 0.000836361166813043
131 Pt          11.24580002           8.11599922           1.14759994 -2.31440521578459e-07 -3.10700367430427e-07 7.97467796036993e-06 0.000836628726561289
132 Pt          14.05730057           8.11599922           1.14759994 -4.50534455236587e-07 1.94822583908517e-07 7.10282871563285e-06 0.000776355749719793
133 Pt           1.40569997          10.55079937           1.14759994 2.58545081947147e-07 5.98040087174812e-08 5.71715955234809e-06 0.000708781813145709
134 Pt            4.2171998          10.55079937           1.14759994 -1.31826738908748e-07 -1.97320800755092e-08   6.288712285064e-06 0.000740151999527122
135 Pt           7.02859974          10.55079937           1.14759994 -2.27087354689977e-07 9.50354963139076e-08 7.44821247652148e-06 0.000801635268923073
136 Pt           9.84009933          10.55079937           1.14759994 -1.53478101899799e-07 -5.02645318012368e-08 6.55312469259052e-06 0.000759655840640083
137 Pt          12.65159988          10.55079937           1.14759994 4.98770648653531e-08 -1.10921835900144e-07  5.7461452745346e-06 0.000710821797733546
138 Pt          15.46299934          10.55079937           1.14759994 1.69715515515192e-07 3.04949161534102e-07  6.5733687289326e-06 0.000747287749156417
139 Pt                    0          12.98560047           1.14759994 6.99944542644748e-08 5.55367577453703e-08 5.66164285892083e-06 0.000703830671509725
140 Pt           2.81149983          12.98560047           1.14759994 1.90298478278203e-08 1.59688725661688e-07 5.43509877484758e-06 0.000698361300943057
141 Pt           5.62290001          12.98560047           1.14759994 2.82224135940297e-07  1.5219026299749e-07  5.9242931524427e-06 0.000723538175139843
142 Pt            8.4343996          12.98560047           1.14759994 -1.82108347144064e-07 -1.78863223681552e-07  7.5627301191766e-06 0.000808204084830011
143 Pt          11.24580002          12.98560047           1.14759994 -1.20457465670291e-07 -2.99043613365106e-07 6.51177853507067e-06 0.000748405993394152
144 Pt          14.05730057          12.98560047           1.14759994 -9.1709559449342e-08 -5.28119440005254e-08 5.78873966853222e-06 0.000704846002465731
145 Pt                    0           1.62320006           3.44320011 0.000155011683984918 -3.24010544959597e-05  0.00201997751560678  -0.0138766580012108
146 Pt           2.81149983           1.62320006           3.44320011 0.000204836553055858 -5.66845633428759e-05  0.00290007478455846    -0.01676254466172
147 Pt           5.62290001           1.62320006           3.44320011 -0.000182397612804982 -7.59334495504427e-05  0.00298716939159641  -0.0169802026297575
148 Pt            8.4343996           1.62320006           3.44320011  0.00011388876961368 0.000131826730950862  0.00274976102101624  -0.0162791993216466
149 Pt          11.24580002           1.62320006           3.44320011 -6.01939437798703e-05 5.93690398235351e-05  0.00271935721579296  -0.0163657043140816
150 Pt          14.05730057           1.62320006           3.44320011 -0.000225253803368371 6.68140122506737e-05  0.00205196872694128  -0.0140998983908056
151 Pt           1.40569997           4.05799961           3.44320011 9.38213690032756e-05 -3.77210991035068e-06  0.00212407457635227  -0.0143413072677508
152 Pt            4.2171998           4.05799961           3.44320011 3.65475137006601e-05 -0.000178423663749947  0.00262550852263249  -0.0160156088732183
153 Pt           7.02859974           4.05799961           3.44320011 0.000361998456265349 0.000268524442911243  0.00308991070318913   -0.017413771755903
154 Pt           9.84009933           4.05799961           3.44320011 -2.11267601495713e-05 0.000289405825067383  0.00381933495935688  -0.0195386686126487
155 Pt          12.65159988           4.05799961           3.44320011 -0.000305872327795301 0.000163935196516587  0.00318723953890785  -0.0177189976178033
156 Pt          15.46299934           4.05799961           3.44320011 -0.000159598873135704 0.000122997809438617  0.00217788089026695  -0.0144156281946533
157 Pt                    0           6.49280024           3.44320011 -5.49256026329122e-05 8.94370679362554e-05  0.00245878405764374  -0.0152632376477673
158 Pt           2.81149983           6.49280024           3.44320011 2.63659851200147e-05 -4.14092320426847e-05  0.00231835637585477  -0.0149648689456414
159 Pt           5.62290001           6.49280024           3.44320011 0.000190701608010945 7.70586570203978e-06   0.0032176522300005  -0.0173980452860093
160 Pt            8.4343996           6.49280024           3.44320011 0.000116163086981085 -0.000217357196458704  0.00383828391633306  -0.0195125536876179
161 Pt          11.24580002           6.49280024           3.44320011 -0.000166683540327235 -0.000170198045792822  0.00392287546788317  -0.0196396876262551
162 Pt          14.05730057           6.49280024           3.44320011 -0.000115441709524381 -1.5114423424303e-05  0.00266655266020476  -0.0161336436375966
163 Pt           1.40569997           8.92759991           3.44320011 -1.94015178186649e-05 0.000233930736305461  0.00277444146316351  -0.0164672301410379
164 Pt            4.2171998           8.92759991           3.44320011  -4.081178202691e-05 0.000169070393531075  0.00278726417635676  -0.0164080113567604
165 Pt           7.02859974           8.92759991           3.44320011 0.000379967923103957 9.57196256894634e-05  0.00362581808591812  -0.0187416773249557
166 Pt           9.84009933           8.92759991           3.44320011 4.56325611978862e-05 0.000197808152962576  0.00460198332457075  -0.0213070191394168
167 Pt          12.65159988           8.92759991           3.44320011 -0.00038380400512746 0.000204156267617544  0.00381149850796929  -0.0192989580575443
168 Pt          15.46299934           8.92759991           3.44320011 2.45882190309472e-05  0.00012677263576258  0.00266630027392625  -0.0161592486028708
169 Pt                    0          11.36240005           3.44320011 0.000444798050893027 0.000121676509890816  0.00335171968942521  -0.0181517508337545
170 Pt           2.81149983          11.36240005           3.44320011 -8.94600125139509e-06 0.000330002333101879  0.00397517569185727  -0.0199945452332826
171 Pt           5.62290001          11.36240005           3.44320011 -0.000302280323359579 0.000207890017635889  0.00328752111912151  -0.0180438304587105
172 Pt            8.4343996          11.36240005           3.44320011 6.41329384200665e-06 -0.000293750855816946  0.00367974353296375   -0.018943986388294
173 Pt          11.24580002          11.36240005           3.44320011 -4.21658546393237e-06 -0.000419621847316995  0.00342185949011132  -0.0184587760939765
174 Pt          14.05730057          11.36240005           3.44320011 -0.000118927770380829 -8.04805856602149e-05  0.00279013481303687  -0.0165034301070599
175 Pt           1.40569997          13.79719925           3.44320011 0.000178733316421627 -0.000439320749373343  0.00343965799737235  -0.0182884691692725
176 Pt            4.2171998          13.79719925           3.44320011 1.39685324003384e-05 -0.000329461188517281  0.00340642237997727  -0.0184625175975739
177 Pt           7.02859974          13.79719925           3.44320011 -0.000103558390483458 -0.000111259665248977  0.00331559574172852  -0.0177366618020021
178 Pt           9.84009933          13.79719925           3.44320011 9.55259612554511e-06 -0.000147378000787026  0.00290498300569247  -0.0167031123979617
179 Pt          12.65159988          13.79719925           3.44320011 -0.000123339993124406 -0.000103965949256021  0.00270414822477672  -0.0161042671365163
180 Pt          15.46299934          13.79719925           3.44320011  3.0217904721636e-05 -0.000170589067291658   0.0023141123421016  -0.0149059799833677
181 Pt                    0                    0           5.73869991 -0.00199846702927822  -0.0270660277141923    0.695537308398064    0.242806161252383
182 Pt           2.81149983                    0           5.73869991   0.0572696977231668  -0.0419082296984309     1.03598359299045    0.297240449460297
183 Pt           5.62290001                    0           5.73869991  -0.0520814050968102  -0.0136943270399291     1.10365962427896    0.305424841351078
184 Pt            8.4343996                    0           5.73869991   0.0181425891428829   0.0439617692067639    0.782887771927661    0.255942903799339
185 Pt          11.24580002                    0           5.73869991  -0.0262252138601586    0.026034560203181    0.918324377421579    0.277945094294882
186 Pt          14.05730057                    0           5.73869991   0.0023219249525957   0.0106260175886434    0.661481472658658    0.237459852449682
187 Pt           1.40569997           2.43479991           5.73869991   0.0439898970969712   0.0038344446118898    0.747367654939772    0.251164365858775
188 Pt            4.2171998           2.43479991           5.73869991  0.00141148735184429 -0.00537574554073057     1.24542925323549    0.322258689030367
189 Pt           7.02859974           2.43479991           5.73869991  -0.0257704409577893   0.0311729172858958    0.824825741424735    0.268578691606577
190 Pt           9.84009933           2.43479991           5.73869991   0.0316119989003498   0.0579451825030254     1.12414538574055    0.310070041412195
191 Pt          12.65159988           2.43479991           5.73869991  -0.0536548980839404   0.0253208612637545    0.947004102283244    0.283476255497908
192 Pt          15.46299934           2.43479991           5.73869991 -0.00758210988270982  -0.0358190277962524    0.539414169932974    0.216854290823246