ITEM: TIMESTEP
0
ITEM: NUMBER OF ATOMS
915
ITEM: BOX BOUNDS pp pp ff
0.0000000000000000e+00 1.6869000000000000e+01
0.0000000000000000e+00 1.4609000000000000e+01
0.0000000000000000e+00 4.1478000000000002e+01
ITEM: ATOMS id element xu yu zu fx fy fz q
1 Pt           1.40569997           0.81160003          35.73899841 -4.17276413736322e-05 -0.00102463894316125 -0.000456128242133783 -0.00461366000779562
2 Pt            4.2171998           0.81160003          35.73899841 0.000276219697228782 -0.000420638621146391 1.45825552320397e-05 -0.00150395802352593
3 Pt           7.02859974           0.81160003          35.73899841 -0.000608913989343693 -0.000324722028240534 -0.000109633930961491  -0.0049858376544739
4 Pt           9.84009933           0.81160003          35.73899841 -0.000211525026872619 0.000965758261510527 -0.000802173302077718 -0.00727628639373945
5 Pt          12.65159988           0.81160003          35.73899841 -0.000218188029803665 -7.29354822182961e-05 -0.00203879332365586   0.0134438717365457
6 Pt          15.46299934           0.81160003          35.73899841 0.000149491223631849 -0.000321132815153926 -5.18590643624514e-05 -0.00231926434102209
7 Pt                    0           3.24640012          35.73899841  0.00478686845379246  0.00393697617204455  -0.0244180784991884    0.045633237281481
8 Pt           2.81149983           3.24640012          35.73899841 0.000598307980458085  -0.0021405006658464   -0.131369098748502   0.0981226782279091
9 Pt           5.62290001           3.24640012          35.73899841 -0.00123117772611366 -0.00134664417765189 -0.00167697800474047   0.0114492056268288
10 Pt            8.4343996           3.24640012          35.73899841 0.000155941540472086 -0.000138840911017937 -5.45315251692756e-05 -0.00272120334558313
11 Pt          11.24580002           3.24640012          35.73899841 0.000139373883554449 -1.70316825309201e-05 -0.000137043624489644  0.00221150755663951
12 Pt          14.05730057           3.24640012          35.73899841 0.000973721626347869 -0.000946520486057789 -0.00242885337051548   0.0142600029199729
13 Pt           1.40569997           5.68120003          35.73899841  0.00247319238576864 -0.00358558270304877   -0.022624670941741   0.0441704272701168
14 Pt            4.2171998           5.68120003          35.73899841 -0.00496768462361788  0.00275052057759654 -0.00645675958605877   0.0235665220434168
15 Pt           7.02859974           5.68120003          35.73899841   0.0018894473989191    0.002689637565672 -0.00332076958296542   0.0160794287055668
16 Pt           9.84009933           5.68120003          35.73899841  0.00116967864602555 0.000179795337458522 -0.000121391544910022 -0.00424894887271022
17 Pt          12.65159988           5.68120003          35.73899841 -0.00198715031761708 0.000322054464549942 -0.00215845539651826   -0.015300401265898
18 Pt          15.46299934           5.68120003          35.73899841 0.000535561780661395 -0.00150875522736824 -0.00188972079834584   0.0117297012024874
19 Pt                    0           8.11599922          35.73899841  0.00183298347082521 0.000852294425861344 -0.000283190689982304  0.00654297640150737
20 Pt           2.81149983           8.11599922          35.73899841  0.00437025900930048   0.0122355825883657   -0.122608187799495   0.0976161313184333
21 Pt           5.62290001           8.11599922          35.73899841 -0.000584285489945577   0.0057517912056867  -0.0384833194151165   0.0578057613544151
22 Pt            8.4343996           8.11599922          35.73899841 -0.00879818770828733  0.00659153852150518   -0.103343013586372   0.0873558436288026
23 Pt          11.24580002           8.11599922          35.73899841 -5.5169939030791e-05 9.88763586785476e-05 -2.6973805163705e-05 0.000618915128573767
24 Pt          14.05730057           8.11599922          35.73899841 0.000331432052948541 5.48632313212028e-05 -9.43525309845857e-05 -0.00461968241198362
25 Pt           1.40569997          10.55079937          35.73899841   0.0123719341809283  0.00185082312530311   -0.132211763472877    0.101635813703087
26 Pt            4.2171998          10.55079937          35.73899841  -0.0134958425846866 -0.00352113835964665  -0.0821684645517735   0.0821462882158998
27 Pt           7.02859974          10.55079937          35.73899841 -0.00338680202976457 -0.00535272257665279 -0.00717111828703988    0.025454505949625
28 Pt           9.84009933          10.55079937          35.73899841 -0.00040413659644049 -0.000870479518209335 -0.000585954645181584  0.00620016327009083
29 Pt          12.65159988          10.55079937          35.73899841 -0.00113337002545999 -0.000167011045778953 -0.00149927779172106  -0.0108466200498789
30 Pt          15.46299934          10.55079937          35.73899841 -0.00129280921948725 -0.000315406906851984 -0.00148404021696989 -0.00827868513083061
31 Pt                    0          12.98560047          35.73899841   0.0011712510951928 -0.00254458187392163 -0.00141952617373486   0.0104063299372917
32 Pt           2.81149983          12.98560047          35.73899841 -0.00113617710336563 -0.00834471962196938  -0.0107715233303743   0.0296031525295297
33 Pt           5.62290001          12.98560047          35.73899841 -0.000178654247672896   0.0024056729386063 -0.00110339888222828  -0.0102398694730801
34 Pt            8.4343996          12.98560047          35.73899841 0.000101024231677627   0.0003863999654201 -0.000588760249389416  0.00603488135649947
35 Pt          11.24580002          12.98560047          35.73899841 0.000363727987418519 0.000593070863664203 -0.00226221856564571   0.0131028556501703
36 Pt          14.05730057          12.98560047          35.73899841 -0.000540216957324739 3.65345789870966e-05 -0.00088659166236464  0.00804813170753204
37 Pt                    0           1.62320006          38.03450012 -3.9746145069158e-07  7.3366877786784e-06 -5.39944352437379e-06 -0.000808675564331935
38 Pt           2.81149983           1.62320006          38.03450012 -6.43562306197463e-07 3.20866615940621e-05 -1.86119075020797e-05 -0.00152795347890136
39 Pt           5.62290001           1.62320006          38.03450012 -4.1434123309925e-07 -1.29084200816854e-06 -2.53456226127048e-06 -0.000502032808751752
40 Pt            8.4343996           1.62320006          38.03450012 -2.14159062483382e-07 -4.0919821231536e-07 -1.41492685100249e-07  0.00014967409889015
41 Pt          11.24580002           1.62320006          38.03450012 5.94979563075697e-07 6.17548394362342e-07 -5.95015325347851e-07 -0.000260536963227081
42 Pt          14.05730057           1.62320006          38.03450012 -9.02587757121665e-07 5.00858969838677e-07 -4.05140382361341e-07 -0.000307572011026822
43 Pt           1.40569997           4.05799961          38.03450012 4.30204177149742e-05 -2.33477385273952e-05 -0.000112103114806516 -0.00337261085905785
44 Pt            4.2171998           4.05799961          38.03450012 -4.46717021199745e-05 -1.25372900092792e-05 -9.69549155146974e-05 -0.00304185793377308
45 Pt           7.02859974           4.05799961          38.03450012 -6.5593014506519e-06 3.50171482591979e-06 -9.27046908809366e-06 -0.000849159855730196
46 Pt           9.84009933           4.05799961          38.03450012 6.50931080516794e-07 -4.30241176093103e-07 -3.48023868950672e-07 -0.000148641767551976
47 Pt          12.65159988           4.05799961          38.03450012  3.3725670163952e-07 -1.47055091078002e-06 -1.11309937280574e-06 -0.000323857933590824
48 Pt          15.46299934           4.05799961          38.03450012 6.10612957296938e-06 -4.35632831838261e-06 -1.14095299177202e-05 -0.00110507503643417
49 Pt                    0           6.49280024          38.03450012 6.99018087521613e-06 -3.35964928028183e-06 -3.34337530988067e-05 -0.00171427485268263
50 Pt           2.81149983           6.49280024          38.03450012 -1.27496886993472e-05  4.9984447075649e-05 -0.00010993074381735 -0.00327775305306843
51 Pt           5.62290001           6.49280024          38.03450012 -3.24939486843021e-06 1.37029315083005e-05 -6.93528496792158e-05 -0.00252500494616324
52 Pt            8.4343996           6.49280024          38.03450012 -4.3865120658842e-06 4.22502489087836e-05 -3.01326321692835e-05 -0.00184519232048399
53 Pt          11.24580002           6.49280024          38.03450012 -4.78531208366447e-06 2.69079273861425e-06 -2.02128640907892e-05 -0.00114795292352927
54 Pt          14.05730057           6.49280024          38.03450012 1.13964483902233e-06  2.0599869679917e-07 -6.60149318527367e-08 -0.000160933010774977
55 Pt           1.40569997           8.92759991          38.03450012   7.610637571389e-05 4.49540539956485e-05 -0.000136354654854056 -0.00378637548992854
56 Pt            4.2171998           8.92759991          38.03450012 -4.75756557935051e-05 2.69187447395401e-06 -0.00019913305369045 -0.00445096998920847
57 Pt           7.02859974           8.92759991          38.03450012 2.13071231010427e-05 -3.53702146300102e-05 -7.5832048484237e-05 -0.00290618534406405
58 Pt           9.84009933           8.92759991          38.03450012 -3.17322931334493e-05 -1.97404682496134e-05 -2.40608141094758e-05 -0.00174561269829023
59 Pt          12.65159988           8.92759991          38.03450012 2.43220869922067e-07 7.33963800989904e-07 -6.67659042914936e-07 0.000253073644107436
60 Pt          15.46299934           8.92759991          38.03450012 6.43552297271038e-07 -2.32681431052966e-06 -2.26034678189085e-06 -0.000373982627479714
61 Pt                    0          11.36240005          38.03450012 3.08867603582926e-05 -1.15114252402789e-05 -1.72995795732045e-05 -0.00142418483491251
62 Pt           2.81149983          11.36240005          38.03450012 -1.30835021848166e-05 -5.70675540793226e-05 -0.000108044418411518  -0.0034678751411881
63 Pt           5.62290001          11.36240005          38.03450012  -1.790691132746e-05 -2.31690777073178e-05 -2.84285489566134e-05 -0.00169961592345644
64 Pt            8.4343996          11.36240005          38.03450012 -3.71226350740021e-06 -3.30724548261183e-06 -2.53404000164446e-05 -0.00142899540161257
65 Pt          11.24580002          11.36240005          38.03450012 -2.91382400708067e-06 2.44077190632677e-06 -5.95838784341671e-06  -0.0006393293762212
66 Pt          14.05730057          11.36240005          38.03450012 -1.8191329255356e-07 -1.62783043051633e-06 -1.33573313306721e-06 0.000379958982748247
67 Pt           1.40569997          13.79719925          38.03450012 3.76387689932403e-06 -4.19922555876454e-06 -2.25739300084157e-05 -0.00134335112225701
68 Pt            4.2171998          13.79719925          38.03450012 -5.99017592871888e-06 1.21862624217045e-06 -3.22667891033663e-05 -0.00155639324216804
69 Pt           7.02859974          13.79719925          38.03450012 -8.1711766630954e-07 4.14477948051697e-07 -1.85661686217676e-06 -0.00036805249355856
70 Pt           9.84009933          13.79719925          38.03450012 -3.19252077461787e-08 1.21531890253844e-07 -3.56304191712801e-08 1.85543981843198e-05
71 Pt          12.65159988          13.79719925          38.03450012 -7.31015143985544e-08 2.37928291883536e-07 -1.16579891285339e-06 -0.000398009147117892
72 Pt          15.46299934          13.79719925          38.03450012 2.69719006853409e-06 -4.33207967512776e-07 -1.33958255575697e-05 -0.000982259693136517
73 Pt                    0                    0          40.33010101 1.02594687654189e-08 -5.67910238530746e-09 -7.03879533070872e-08 7.72623149302173e-05
74 Pt           2.81149983                    0          40.33010101 -6.78741040926526e-10 1.07184261186497e-09 -1.26539856796743e-07  0.00010347582294392
75 Pt           5.62290001                    0          40.33010101 -1.54629677521163e-08 -1.20473515004613e-08 -3.06520804496063e-08 5.14564245170674e-05
76 Pt            8.4343996                    0          40.33010101 -7.05152262367617e-10 -5.76739336005081e-10 -5.84649281595751e-09 1.79358419919588e-05
77 Pt          11.24580002                    0          40.33010101 -6.82563206860114e-11 3.11386928785749e-10 -3.65890630479384e-10 3.09649551839724e-06
78 Pt          14.05730057                    0          40.33010101 6.43263518097752e-09 -2.19162594852278e-09 -1.00982721041056e-08 2.69364252234901e-05
79 Pt           1.40569997           2.43479991          40.33010101 -5.19122510178619e-09 1.84564651464709e-09 -5.58981526705493e-09 2.63702135214269e-05
80 Pt            4.2171998           2.43479991          40.33010101 1.17290875682158e-08 7.17971162162782e-09 -1.61050245220036e-08 3.94510212724649e-05
81 Pt           7.02859974           2.43479991          40.33010101 -4.3852562866277e-09 7.76413114530921e-09 -1.84321828724205e-08 3.66870305606385e-05
82 Pt           9.84009933           2.43479991          40.33010101 -6.50734881857095e-12 -1.07533902189906e-11 -1.23815865861884e-11 2.83276320765528e-07
83 Pt          12.65159988           2.43479991          40.33010101 -1.51727859420057e-10 -2.18830115915026e-10 -1.47480252859738e-09 -1.13447717174888e-05
84 Pt          15.46299934           2.43479991          40.33010101 3.90793417510346e-10 -1.99529272815233e-10 -2.33110986802225e-09    1.49603496477e-05
85 Pt                    0           4.86959982          40.33010101 4.28595609627956e-08  2.6741203120523e-09 -1.1141087994966e-07 9.77328379939855e-05
86 Pt           2.81149983           4.86959982          40.33010101 5.35871540388808e-09 6.85187476927173e-08 -1.56293610435794e-07 0.000120799999265562
87 Pt           5.62290001           4.86959982          40.33010101 -5.81070021910947e-08 2.08774484226795e-08  -1.828583044058e-07 0.000127628051666212
88 Pt            8.4343996           4.86959982          40.33010101 -6.9395554725272e-09 2.67966133400085e-08 -1.17866501097191e-07 9.38440380987996e-05
89 Pt          11.24580002           4.86959982          40.33010101 1.62994426035466e-09 2.07158758290263e-08 -2.68832523405393e-08  4.8528733683082e-05
90 Pt          14.05730057           4.86959982          40.33010101 5.62029442533601e-10 -1.17256468541631e-09 -1.57703603390901e-08 3.40033539369575e-05
91 Pt           1.40569997           7.30439949          40.33010101 -1.75625875005446e-08 1.85126279824377e-08 -1.57812755924919e-07 0.000122594388825649
92 Pt            4.2171998           7.30439949          40.33010101 1.79268134454258e-08 3.02323572592801e-09 -2.00889430716268e-07 0.000140179867367745
93 Pt           7.02859974           7.30439949          40.33010101 -2.68372285358078e-08 -8.86510908721407e-09 -1.63051656968509e-08 4.52925141415044e-05
94 Pt           9.84009933           7.30439949          40.33010101 7.80489816137679e-09 -6.83161632916948e-09 -1.72241541376463e-09 1.85891073229302e-05
95 Pt          12.65159988           7.30439949          40.33010101 -1.09514718064567e-08 -1.22751351453667e-08 -1.64993488745187e-08  3.5780260776329e-05
96 Pt          15.46299934           7.30439949          40.33010101 1.66905132269326e-08 -7.30242826523321e-10 -1.19661161981555e-08 3.39815703318523e-05
97 Pt                    0           9.73919964          40.33010101 6.10294991424695e-09 -3.65570451275337e-08 -7.15021604784571e-08 7.82647222340299e-05
98 Pt           2.81149983           9.73919964          40.33010101 1.74324481251943e-08 -9.42039259844819e-09 -1.71974153601831e-08 5.27664089318694e-05
99 Pt           5.62290001           9.73919964          40.33010101 -8.50942138513152e-09 -6.09856046355644e-08 -1.75614900258196e-07 0.000125661626891638
100 Pt            8.4343996           9.73919964          40.33010101 -9.46132229567458e-09 2.07250263471374e-08 -2.08722183810053e-08 4.58116344206927e-05
101 Pt          11.24580002           9.73919964          40.33010101 -2.20394689128299e-08 4.14765937530488e-09 -6.11456855074116e-08 6.70076673098477e-05
102 Pt          14.05730057           9.73919964          40.33010101 4.60948111283841e-09 1.26410192438991e-09 -9.84049721181202e-09 2.35702910560508e-05
103 Pt           1.40569997          12.17399979          40.33010101 2.01365347547747e-08 1.75981552449038e-08 -3.19037850660815e-08 5.60536743623787e-05
104 Pt            4.2171998          12.17399979          40.33010101 -2.35925775899885e-08 1.87419040774646e-08 -1.45029666313006e-07  0.00011199964762063
105 Pt           7.02859974          12.17399979          40.33010101 -1.31173374735108e-08 -2.03860763493758e-08 -9.41294323916402e-08 8.76155440535964e-05
106 Pt           9.84009933          12.17399979          40.33010101 -6.02541497838963e-09 -1.00192400158889e-08 -7.01143960165634e-09 2.65147089297775e-05
107 Pt          12.65159988          12.17399979          40.33010101 -1.80487598061716e-09 -1.20272283985349e-09 -2.58724886580295e-09 1.17361467958552e-05
108 Pt          15.46299934          12.17399979          40.33010101 2.44510708148599e-08 -5.36961267261862e-10 -5.65762341032934e-08 6.42472343190858e-05
109 Pt           1.40569997           0.81160003           1.14759994 -1.28199949343598e-08 2.18838714129784e-08 8.64782118080333e-09 -3.16232548220086e-05
110 Pt            4.2171998           0.81160003           1.14759994  3.0822251040361e-10 2.45084010318537e-08 2.56070109292321e-08 -4.46830423019453e-05
111 Pt           7.02859974           0.81160003           1.14759994 9.03159623908853e-10 -2.45537266610697e-09 4.75851258995898e-09 1.78048731370157e-05
112 Pt           9.84009933           0.81160003           1.14759994 7.70312760225765e-09 1.24593187694968e-08  2.3600862204494e-08 -4.67765737237559e-05
113 Pt          12.65159988           0.81160003           1.14759994 2.76705342666573e-08 3.81092885478319e-08 1.14747829779473e-07   -0.000102832970472
114 Pt          15.46299934           0.81160003           1.14759994 1.20875841776139e-09 9.48879804519242e-09 4.85391826739743e-08 -7.80898583007343e-05
115 Pt                    0           3.24640012           1.14759994 2.43164155571701e-08 -1.37728501907349e-08 1.13614728620005e-07 -0.000109930584929215
116 Pt           2.81149983           3.24640012           1.14759994 -7.66986366864168e-09 3.11269990514945e-08 1.51679692704673e-07 -0.000120506973012629
117 Pt           5.62290001           3.24640012           1.14759994 -1.41226726779051e-08 -9.96247123004139e-10 2.14811996646394e-09 -2.18654852440724e-05
118 Pt            8.4343996           3.24640012           1.14759994 -6.24361249299624e-09 3.39637596858189e-09 2.86492848488225e-08 -4.65865727216455e-05
119 Pt          11.24580002           3.24640012           1.14759994 1.75848607237631e-08 -9.26487762209436e-09 3.54528896901501e-08 -5.4166568251387e-05
120 Pt          14.05730057           3.24640012           1.14759994 2.87140636985882e-08 -2.80030308444766e-08 9.46493040973194e-08 -9.68915295269934e-05
121 Pt           1.40569997           5.68120003           1.14759994 2.61481354175303e-08 -2.57501276365301e-08 1.26760334437523e-07 -0.000109714866032114
122 Pt            4.2171998           5.68120003           1.14759994 -2.3846278765288e-08 -6.83648783355485e-09   1.328641240581e-08 -4.05050009931586e-05
123 Pt           7.02859974           5.68120003           1.14759994 4.91658845886109e-09 -1.53705240936777e-08 2.09131450603655e-08 -3.50074695373491e-05
124 Pt           9.84009933           5.68120003           1.14759994 -3.14227132323067e-09 -1.12844771141465e-08 1.77883940491208e-08 -2.80915616519847e-05
125 Pt          12.65159988           5.68120003           1.14759994 1.59199311194548e-08 -1.40223928254295e-08 2.70388399976575e-08 -4.33591071699128e-05
126 Pt          15.46299934           5.68120003           1.14759994 -4.36853091842137e-09 -2.67875600678506e-08  1.2042209499362e-07 -0.000103987540629281
127 Pt                    0           8.11599922           1.14759994 -9.66499836172317e-09 -2.84513322021597e-10 6.57658782893302e-08 -7.78029828479392e-05
128 Pt           2.81149983           8.11599922           1.14759994 -1.17708791544061e-09 -7.85099327506472e-09 2.82371517973941e-08 -5.30402280054918e-05
129 Pt           5.62290001           8.11599922           1.14759994 1.38436182497426e-08 2.30084888956991e-09 2.46326067512232e-08 4.30237944354263e-05
130 Pt            8.4343996           8.11599922           1.14759994 2.39341691521635e-08 -1.63940293444699e-08 3.61663673123344e-08  6.1410515275973e-05
131 Pt          11.24580002           8.11599922           1.14759994 -1.70318974134664e-08 -2.29002311518946e-08  3.2795895541033e-08 6.16745751882484e-05
132 Pt          14.05730057           8.11599922           1.14759994 -8.68408624702563e-10 3.76154079304518e-10 2.24961661168233e-10 1.49886136268747e-06
133 Pt           1.40569997          10.55079937           1.14759994 -2.40090911683663e-08 -5.5753520633813e-09  6.1437839995344e-08 -6.59736634246493e-05
134 Pt            4.2171998          10.55079937           1.14759994 6.22272564172774e-09 9.33731927207543e-10 1.75818884596732e-08 -3.48642819058954e-05
135 Pt           7.02859974          10.55079937           1.14759994 -7.54679510285376e-09 3.16515868702143e-09 7.77746080275467e-09 2.66957163817792e-05
136 Pt           9.84009933          10.55079937           1.14759994 3.09160095665647e-09  1.0137768663296e-09 5.71817746738985e-09 -1.53012974429018e-05
137 Pt          12.65159988          10.55079937           1.14759994 -4.47303147358009e-09 9.99740124573217e-09 5.86985474151481e-08 -6.41005249082752e-05
138 Pt          15.46299934          10.55079937           1.14759994 -6.26075593490202e-09 -1.11753256599703e-08 5.46129388441281e-09 -2.73561773523773e-05
139 Pt                    0          12.98560047           1.14759994 -6.93676993455225e-09 -5.7058822055081e-09   6.711534940961e-08 -7.06435669149731e-05
140 Pt           2.81149983          12.98560047           1.14759994 -2.02309047344746e-09 -1.75952009988697e-08 9.29246501062515e-08 -7.64401694677388e-05
141 Pt           5.62290001          12.98560047           1.14759994 -2.00533374687232e-08 -1.08706023696279e-08 4.16835923153915e-08 -5.13550695163149e-05
142 Pt            8.4343996          12.98560047           1.14759994 -7.54142889930675e-09 -7.34069833627436e-09 1.19835999659089e-08 3.33934279610329e-05
143 Pt          11.24580002          12.98560047           1.14759994 4.23782661836547e-09  1.0513332343684e-08 7.86058023390149e-09 -2.64081620509278e-05
144 Pt          14.05730057          12.98560047           1.14759994 9.02531749102712e-09 5.13631005455419e-09 5.48090233784233e-08 -6.98708766524986e-05
145 Pt                    0           1.62320006           3.44320011 -4.67755791274041e-05 9.70293569176514e-06 0.000168084910264608  0.00419162517891566
146 Pt           2.81149983           1.62320006           3.44320011 -1.59855728735206e-05 4.41080546632223e-06 1.66242696925152e-05  0.00130859454328852
147 Pt           5.62290001           1.62320006           3.44320011 1.17293111145031e-05   4.879390130763e-06 1.07135587861294e-05  0.00109204830177829
148 Pt            8.4343996           1.62320006           3.44320011 -1.2527934562873e-05 -1.45296427794607e-05 3.01020536568523e-05  0.00179182329316681
149 Pt          11.24580002           1.62320006           3.44320011 6.26597838604922e-06 -6.2054234740163e-06 3.33403342006213e-05  0.00170535319854028
150 Pt          14.05730057           1.62320006           3.44320011 6.34491126801549e-05 -1.88149949334277e-05 0.000159651797240838  0.00397208873904552
151 Pt           1.40569997           4.05799961           3.44320011 -2.43963851927435e-05 9.94258493750231e-07 0.000140168730819834  0.00372853765364281
152 Pt            4.2171998           4.05799961           3.44320011 -4.69008903194225e-06 2.29135095658414e-05 4.48051387770704e-05  0.00205579275132779
153 Pt           7.02859974           4.05799961           3.44320011 -1.36467576400853e-05 -1.01222315871041e-05 5.42716093781509e-06 0.000656339486504328
154 Pt           9.84009933           4.05799961           3.44320011 -1.58673272536631e-06 2.17252840909332e-05 1.43073585149988e-05 -0.00146744547262627
155 Pt          12.65159988           4.05799961           3.44320011 6.06479400876204e-06 -3.25036091952937e-06 2.04895909857628e-06 0.000351242340760472
156 Pt          15.46299934           4.05799961           3.44320011 4.03854255946188e-05 -3.12055885801115e-05 0.000126319402834679  0.00365194216258739
157 Pt                    0           6.49280024           3.44320011 1.01234093474476e-05 -1.64693063125238e-05 6.89115093717531e-05   0.0028043166445163
158 Pt           2.81149983           6.49280024           3.44320011 -5.45891716727019e-06 8.58065543429171e-06 9.56249996267065e-05   0.0031055412001884
159 Pt           5.62290001           6.49280024           3.44320011 -7.38280429122782e-06 -2.96188854250228e-07 5.29660343061675e-07 0.000673476545487715
160 Pt            8.4343996           6.49280024           3.44320011 8.58001227572014e-06 -1.60599230461437e-05 1.58615195699323e-05 -0.00144226012793053
161 Pt          11.24580002           6.49280024           3.44320011 -1.33133819744007e-05 -1.35934391753902e-05 2.20202812932616e-05 -0.00156935917358824
162 Pt          14.05730057           6.49280024           3.44320011 1.38607614341771e-05 1.83207890445577e-06 3.96119615824511e-05  0.00193761447218239
163 Pt           1.40569997           8.92759991           3.44320011 1.88669667833457e-06 -2.27659561349484e-05 2.76035589219581e-05  0.00160286754375828
164 Pt            4.2171998           8.92759991           3.44320011 4.13899278221422e-06 -1.71354989309971e-05 2.63827220799554e-05  0.00166364303559731
165 Pt           7.02859974           8.92759991           3.44320011 1.36129821924197e-05 3.43067425633445e-06  5.2038562729237e-06 -0.000671313323049714
166 Pt           9.84009933           8.92759991           3.44320011 6.92941872664658e-06 3.00182209859764e-05 9.78974612592859e-05 -0.00323554322947729
167 Pt          12.65159988           8.92759991           3.44320011 -2.44361406647355e-05 1.29991699379398e-05 1.44781811057849e-05  -0.0012284653422269
168 Pt          15.46299934           8.92759991           3.44320011 -2.92821636649112e-06 -1.49993955948192e-05  3.9445495684131e-05  0.00190857449629633
169 Pt                    0          11.36240005           3.44320011 2.08018113440937e-06  5.7109456734797e-07 -8.5750630422369e-08 -8.49295068517102e-05
170 Pt           2.81149983          11.36240005           3.44320011 -8.69044644319927e-07 3.17921575151224e-05 2.52292751058349e-05 -0.00192486788343911
171 Pt           5.62290001          11.36240005           3.44320011 4.51595913551874e-07 -3.10728017741815e-07 9.51024407802239e-08 2.69586445083973e-05
172 Pt            8.4343996          11.36240005           3.44320011 2.92308343087672e-07 -1.35486538886904e-05 7.46606974915906e-06 -0.000874425628589723
173 Pt          11.24580002          11.36240005           3.44320011 -8.74404726707401e-08 -8.84250215540913e-06 -1.27161593914999e-07 -0.000389180440831622
174 Pt          14.05730057          11.36240005           3.44320011 1.12900182367586e-05 7.64345208250564e-06 2.60969722134642e-05  0.00156709525406298
175 Pt           1.40569997          13.79719925           3.44320011 2.16693825622468e-06 -5.33011798058227e-06 5.37625462769421e-07 -0.00022170167997698
176 Pt            4.2171998          13.79719925           3.44320011 2.98005313903214e-07 -7.04287843069858e-06 -4.63105326910215e-07 -0.000394193185069193
177 Pt           7.02859974          13.79719925           3.44320011 1.92755445599727e-06 2.07715754592985e-06 -4.21061373195654e-07 0.000330372263080585
178 Pt           9.84009933          13.79719925           3.44320011 -7.80638442573803e-07 1.20764357586535e-05 1.60498420559496e-05  0.00136503345190324
179 Pt          12.65159988          13.79719925           3.44320011 1.50419579142891e-05 1.27005808464672e-05 3.48336631805004e-05  0.00196289560474679
180 Pt          15.46299934          13.79719925           3.44320011 -6.44292471385185e-06 3.61590837842673e-05 9.59265586087512e-05  0.00315851304939063
181 Pt                    0                    0           5.73869991 0.000581176953053956  0.00795569767429462   0.0595288542627962  -0.0714416035858037
182 Pt           2.81149983                    0           5.73869991 -0.00327481035442227  0.00239391887902238  0.00361059810295339   -0.016992805352511
183 Pt           5.62290001                    0           5.73869991  0.00150187013627729 0.000393821785674408 0.000742191519307158 -0.00880552347214793
184 Pt            8.4343996                    0           5.73869991 -0.00413455007568864  -0.0100187388383041   0.0372460450840939  -0.0582903136617289
185 Pt          11.24580002                    0           5.73869991  0.00342547382759932 -0.00340311811537935   0.0142915746630182  -0.0362880764079777
186 Pt          14.05730057                    0           5.73869991 -0.000744843841294551 -0.00344438611839115   0.0700353231062806  -0.0767792166473825
187 Pt           1.40569997           2.43479991           5.73869991  -0.0110505245063872 -0.00096249713300048   0.0455475249656868  -0.0630677283176455
188 Pt            4.2171998           2.43479991           5.73869991 3.55013188766058e-05 -0.000134132548901936  0.00134151816267553  0.00803840447204947
189 Pt           7.02859974           2.43479991           5.73869991  0.00438169477840785 -0.00529755318248849   0.0286064472905635  -0.0456444616158568
190 Pt           9.84009933           2.43479991           5.73869991 -0.000423430311109493 -0.000776137307342543 0.000300466378556263 -0.00415329677306153
191 Pt          12.65159988           2.43479991           5.73869991  0.00581827178446481 -0.00274626023197062   0.0109804844950242  -0.0307470929258933
192 Pt          15.46299934           2.43479991           5.73869991  0.00341813467195314   0.0160854115285051    0.117866405698264  -0.0973806843718697