ITEM: TIMESTEP
0
ITEM: NUMBER OF ATOMS
218
ITEM: BOX BOUNDS pp pp pp
0.0000000000000000e+00 1.6869000000000000e+01
0.0000000000000000e+00 1.4609000000000000e+01
0.0000000000000000e+00 4.1478000000000002e+01
ITEM: ATOMS id element xu yu zu fx fy fz q
1 Pt 1.40573 0.811598 35.739 0.00116082 -0.000215038 -19.85 0.270451
2 Pt 4.21718 0.811598 35.739 0.00184371 -4.18082e-05 -19.8661 0.270558
3 Pt 7.02864 0.811598 35.739 -1.69484e-06 4.96942e-05 -19.8746 0.270616
4 Pt 9.8401 0.811598 35.739 -0.00173115 -4.22228e-05 -19.8662 0.270558
5 Pt 12.6516 0.811598 35.739 -0.00200138 -0.000213031 -19.8495 0.270445
6 Pt 15.463 0.811598 35.739 0.000797277 -0.00029435 -19.8422 0.270399
7 Pt 0 3.24639 35.739 0.00057026 0.000991224 -19.8491 0.270443
8 Pt 2.81146 3.24639 35.739 0.00236965 0.00141614 -19.8645 0.270542
9 Pt 5.62291 3.24639 35.739 0.0012616 0.00187565 -19.8815 0.270659
10 Pt 8.43437 3.24639 35.739 -0.00129947 0.00187576 -19.8814 0.270658
11 Pt 11.2458 3.24639 35.739 -0.00223297 0.00141606 -19.8646 0.270544
12 Pt 14.0573 3.24639 35.739 -0.000736731 0.000990377 -19.8485 0.270436
13 Pt 1.40573 5.68118 35.739 0.00179759 0.00079282 -19.8632 0.270537
14 Pt 4.21718 5.68118 35.739 0.00254346 0.00113746 -19.8853 0.270685
15 Pt 7.02864 5.68118 35.739 -1.69405e-06 0.00132181 -19.897 0.270765
16 Pt 9.8401 5.68118 35.739 -0.00243082 0.00113705 -19.8853 0.270686
17 Pt 12.6516 5.68118 35.739 -0.00263862 0.000794793 -19.8628 0.270531
18 Pt 15.463 5.68118 35.739 0.000797649 0.000634528 -19.8527 0.270467
19 Pt 0 8.11598 35.739 0.000804615 -0.000284775 -19.857 0.270498
20 Pt 2.81146 8.11598 35.739 0.00288023 -0.000436916 -19.8757 0.27062
21 Pt 5.62291 8.11598 35.739 0.00153889 -0.000604354 -19.8962 0.270761
22 Pt 8.43437 8.11598 35.739 -0.00157679 -0.000604239 -19.8961 0.27076
23 Pt 11.2458 8.11598 35.739 -0.00274347 -0.000437041 -19.8758 0.270622
24 Pt 14.0573 8.11598 35.739 -0.000971137 -0.000285448 -19.8564 0.270491
25 Pt 1.40573 10.5508 35.739 0.00157229 -0.0012377 -19.8585 0.270505
26 Pt 4.21718 10.5508 35.739 0.00229501 -0.00175375 -19.8784 0.270639
27 Pt 7.02864 10.5508 35.739 -1.69389e-06 -0.0020318 -19.889 0.270711
28 Pt 9.8401 10.5508 35.739 -0.0021824 -0.00175415 -19.8785 0.270639
29 Pt 12.6516 10.5508 35.739 -0.00241313 -0.0012357 -19.858 0.270499
30 Pt 15.463 10.5508 35.739 0.000797511 -0.00099626 -19.8489 0.270442
31 Pt 0 12.9856 35.739 0.000448039 -4.69639e-05 -19.8457 0.270424
32 Pt 2.81146 12.9856 35.739 0.00210463 -0.000318165 -19.8595 0.270512
33 Pt 5.62291 12.9856 35.739 0.00111829 -0.000612966 -19.8746 0.270616
34 Pt 8.43437 12.9856 35.739 -0.00115616 -0.00061285 -19.8745 0.270615
35 Pt 11.2458 12.9856 35.739 -0.00196798 -0.000318306 -19.8596 0.270514
36 Pt 14.0573 12.9856 35.739 -0.000614484 -4.75731e-05 -19.8452 0.270417
37 Pt 0 1.62319 38.0345 7.26028e-06 7.87752e-06 -0.0572213 -0.0155395
38 Pt 2.81146 1.62319 38.0345 7.91675e-06 4.99115e-06 -0.0572869 -0.0155477
39 Pt 5.62291 1.62319 38.0345 3.98683e-06 7.42079e-06 -0.0573206 -0.0155524
40 Pt 8.43437 1.62319 38.0345 -3.89967e-06 7.53228e-06 -0.057321 -0.0155524
41 Pt 11.2458 1.62319 38.0345 -9.0069e-06 6.06297e-06 -0.0572812 -0.015547
42 Pt 14.0573 1.62319 38.0345 -4.47026e-06 2.26532e-07 -0.0572531 -0.015543
43 Pt 1.40573 4.05799 38.0345 8.58519e-06 1.84603e-06 -0.0572809 -0.0155469
44 Pt 4.21718 4.05799 38.0345 7.60241e-06 6.14243e-06 -0.0573304 -0.0155536
45 Pt 7.02864 4.05799 38.0345 6.61985e-08 7.90091e-06 -0.0573521 -0.0155567
46 Pt 9.8401 4.05799 38.0345 -7.74681e-06 5.38974e-06 -0.0573316 -0.0155538
47 Pt 12.6516 4.05799 38.0345 -6.34582e-06 4.31767e-06 -0.0572805 -0.0155468
48 Pt 15.463 4.05799 38.0345 -3.95142e-06 6.15047e-06 -0.0572356 -0.0155413
49 Pt 0 6.49278 38.0345 8.48226e-06 3.80844e-06 -0.0572488 -0.0155432
50 Pt 2.81146 6.49278 38.0345 1.05018e-05 3.98102e-07 -0.0573221 -0.0155525
51 Pt 5.62291 6.49278 38.0345 5.35367e-06 2.38502e-06 -0.0573634 -0.0155583
52 Pt 8.43437 6.49278 38.0345 -5.26645e-06 2.49655e-06 -0.0573638 -0.0155584
53 Pt 11.2458 6.49278 38.0345 -1.15903e-05 1.46974e-06 -0.0573164 -0.0155518
54 Pt 14.0573 6.49278 38.0345 -5.69099e-06 -3.84654e-06 -0.0572807 -0.0155467
55 Pt 1.40573 8.92757 38.0345 1.00996e-05 -6.16816e-06 -0.057288 -0.015548
56 Pt 4.21718 8.92757 38.0345 9.26163e-06 -4.57197e-06 -0.0573402 -0.0155551
57 Pt 7.02864 8.92757 38.0345 6.62632e-08 -4.21074e-06 -0.0573633 -0.0155584
58 Pt 9.8401 8.92757 38.0345 -9.40584e-06 -5.32494e-06 -0.0573415 -0.0155553
59 Pt 12.6516 8.92757 38.0345 -7.86059e-06 -3.69624e-06 -0.0572876 -0.0155478
60 Pt 15.463 8.92757 38.0345 -3.95166e-06 -5.59005e-07 -0.0572412 -0.0155421
61 Pt 0 11.3624 38.0345 8.09144e-06 9.00385e-08 -0.0572327 -0.015541
62 Pt 2.81146 11.3624 38.0345 9.71034e-06 -5.038e-06 -0.0573007 -0.0155495
63 Pt 5.62291 11.3624 38.0345 4.95293e-06 -4.93659e-06 -0.0573368 -0.0155546
64 Pt 8.43437 11.3624 38.0345 -4.86582e-06 -4.82517e-06 -0.0573372 -0.0155546
65 Pt 11.2458 11.3624 38.0345 -1.07984e-05 -3.96656e-06 -0.057295 -0.0155488
66 Pt 14.0573 11.3624 38.0345 -5.30084e-06 -7.56331e-06 -0.0572645 -0.0155444
67 Pt 1.40573 13.7972 38.0345 7.91485e-06 -7.28254e-06 -0.0572347 -0.0155412
68 Pt 4.21718 13.7972 38.0345 6.9244e-06 -5.09467e-06 -0.0572781 -0.015547
69 Pt 7.02864 13.7972 38.0345 6.61568e-08 -4.47599e-06 -0.0572968 -0.0155497
70 Pt 9.8401 13.7972 38.0345 -7.06848e-06 -5.84672e-06 -0.0572793 -0.0155472
71 Pt 12.6516 13.7972 38.0345 -5.67674e-06 -4.81186e-06 -0.0572343 -0.0155411
72 Pt 15.463 13.7972 38.0345 -3.94952e-06 -2.00612e-06 -0.0571924 -0.015536
73 Pt 0 0 40.3301 2.684e-08 6.73563e-09 -0.00010924 0.000719574
74 Pt 2.81146 0 40.3301 1.71679e-08 3.72354e-09 -0.000109395 0.000720051
75 Pt 5.62291 0 40.3301 5.76127e-09 6.58728e-09 -0.000109444 0.000720217
76 Pt 8.43437 0 40.3301 -5.23528e-09 6.74244e-09 -0.000109446 0.000720222
77 Pt 11.2458 0 40.3301 -1.89585e-08 3.87729e-09 -0.000109386 0.000720028
78 Pt 14.0573 0 40.3301 -2.09853e-08 1.09174e-11 -0.000109315 0.00071979
79 Pt 1.40573 2.43479 40.3301 3.02806e-08 1.49549e-08 -0.000109408 0.000720072
80 Pt 4.21718 2.43479 40.3301 9.95868e-09 1.77916e-08 -0.000109514 0.000720416
81 Pt 7.02864 2.43479 40.3301 2.92132e-10 2.04286e-08 -0.000109537 0.000720495
82 Pt 9.8401 2.43479 40.3301 -1.28291e-08 1.77856e-08 -0.000109511 0.000720404
83 Pt 12.6516 2.43479 40.3301 -5.88654e-09 1.53508e-08 -0.000109444 0.000720183
84 Pt 15.463 2.43479 40.3301 -2.64222e-08 1.79866e-08 -0.000109328 0.000719828
85 Pt 0 4.86959 40.3301 2.70842e-08 7.37234e-09 -0.000109362 0.000719957
86 Pt 2.81146 4.86959 40.3301 1.74884e-08 4.6596e-09 -0.00010952 0.000720441
87 Pt 5.62291 4.86959 40.3301 5.84879e-09 7.71258e-09 -0.00010957 0.000720615
88 Pt 8.43437 4.86959 40.3301 -5.32264e-09 7.8681e-09 -0.000109572 0.000720619
89 Pt 11.2458 4.86959 40.3301 -1.92722e-08 4.81652e-09 -0.000109511 0.000720418
90 Pt 14.0573 4.86959 40.3301 -2.1219e-08 6.47276e-10 -0.000109437 0.000720173
91 Pt 1.40573 7.30438 40.3301 3.21387e-08 -3.91755e-09 -0.000109454 0.000720232
92 Pt 4.21718 7.30438 40.3301 1.16353e-08 -2.34568e-09 -0.00010956 0.000720577
93 Pt 7.02864 7.30438 40.3301 2.92381e-10 -3.10196e-10 -0.000109581 0.000720654
94 Pt 9.8401 7.30438 40.3301 -1.45074e-08 -2.35099e-09 -0.000109556 0.000720565
95 Pt 12.6516 7.30438 40.3301 -7.73411e-09 -3.52639e-09 -0.000109491 0.000720343
96 Pt 15.463 7.30438 40.3301 -2.64333e-08 -2.23532e-10 -0.000109375 0.000719987
97 Pt 0 9.73917 40.3301 2.79937e-08 -2.62027e-09 -0.000109355 0.000719928
98 Pt 2.81146 9.73917 40.3301 1.92818e-08 -6.7203e-09 -0.00010951 0.000720407
99 Pt 5.62291 9.73917 40.3301 6.73054e-09 -4.85196e-09 -0.000109557 0.000720572
100 Pt 8.43437 9.73917 40.3301 -6.20409e-09 -4.69685e-09 -0.000109558 0.000720577
101 Pt 11.2458 9.73917 40.3301 -2.1067e-08 -6.56187e-09 -0.000109501 0.000720384
102 Pt 14.0573 9.73917 40.3301 -2.21276e-08 -9.35112e-09 -0.000109429 0.000720143
103 Pt 1.40573 12.174 40.3301 3.18108e-08 -1.73485e-08 -0.000109396 0.000720049
104 Pt 4.21718 12.174 40.3301 1.14649e-08 -1.61201e-08 -0.0001095 0.000720385
105 Pt 7.02864 12.174 40.3301 2.92189e-10 -1.41964e-08 -0.00010952 0.000720459
106 Pt 9.8401 12.174 40.3301 -1.43353e-08 -1.6125e-08 -0.000109496 0.000720373
107 Pt 12.6516 12.174 40.3301 -7.41629e-09 -1.69605e-08 -0.000109432 0.00072016
108 Pt 15.463 12.174 40.3301 -2.64227e-08 -1.34309e-08 -0.000109317 0.000719808
109 Pt 1.40573 0.811598 1.1476 2.8813e-08 3.20119e-08 0.000109328 -0.000719863
110 Pt 4.21718 0.811598 1.1476 8.51951e-09 3.08988e-08 0.000109423 -0.000720167
111 Pt 7.02864 0.811598 1.1476 2.91839e-10 2.91096e-08 0.000109439 -0.000720226
112 Pt 9.8401 0.811598 1.1476 -1.13828e-08 3.09072e-08 0.000109419 -0.000720155
113 Pt 12.6516 0.811598 1.1476 -4.41817e-09 3.16278e-08 0.000109365 -0.000719974
114 Pt 15.463 0.811598 1.1476 -2.64172e-08 2.8113e-08 0.000109255 -0.000719639
115 Pt 0 3.24639 1.1476 2.62825e-08 -1.24297e-09 0.000109369 -0.000719966
116 Pt 2.81146 3.24639 1.1476 1.5954e-08 3.1412e-09 0.000109515 -0.000720414
117 Pt 5.62291 3.24639 1.1476 5.12186e-09 1.66916e-09 0.000109553 -0.00072055
118 Pt 8.43437 3.24639 1.1476 -4.59565e-09 1.51401e-09 0.000109555 -0.000720555
119 Pt 11.2458 3.24639 1.1476 -1.77396e-08 2.98317e-09 0.000109506 -0.000720391
120 Pt 14.0573 3.24639 1.1476 -2.04159e-08 5.48679e-09 0.000109444 -0.000720182
121 Pt 1.40573 5.68118 1.1476 2.98986e-08 5.19984e-09 0.00010946 -0.000720248
122 Pt 4.21718 5.68118 1.1476 9.48092e-09 4.57019e-09 0.000109554 -0.000720554
123 Pt 7.02864 5.68118 1.1476 2.92331e-10 3.01637e-09 0.000109571 -0.000720614
124 Pt 9.8401 5.68118 1.1476 -1.23536e-08 4.57575e-09 0.000109551 -0.000720542
125 Pt 12.6516 5.68118 1.1476 -5.49218e-09 4.80866e-09 0.000109497 -0.000720359
126 Pt 15.463 5.68118 1.1476 -2.64364e-08 1.04553e-09 0.000109386 -0.000720021
127 Pt 0 8.11598 1.1476 2.61239e-08 -6.5568e-09 0.000109377 -0.000720004
128 Pt 2.81146 8.11598 1.1476 1.55776e-08 -2.72536e-09 0.000109525 -0.000720457
129 Pt 5.62291 8.11598 1.1476 4.89849e-09 -4.6504e-09 0.000109565 -0.000720598
130 Pt 8.43437 8.11598 1.1476 -4.37225e-09 -4.80577e-09 0.000109567 -0.000720603
131 Pt 11.2458 8.11598 1.1476 -1.73687e-08 -2.87898e-09 0.000109516 -0.000720434
132 Pt 14.0573 8.11598 1.1476 -2.02629e-08 1.74153e-10 0.000109452 -0.00072022
133 Pt 1.40573 10.5508 1.1476 2.85561e-08 -4.94907e-09 0.000109416 -0.000720118
134 Pt 4.21718 10.5508 1.1476 8.1906e-09 -6.67988e-09 0.000109513 -0.000720428
135 Pt 7.02864 10.5508 1.1476 2.92179e-10 -8.72937e-09 0.00010953 -0.000720491
136 Pt 9.8401 10.5508 1.1476 -1.10615e-08 -6.67443e-09 0.000109509 -0.000720416
137 Pt 12.6516 10.5508 1.1476 -4.15715e-09 -5.34342e-09 0.000109453 -0.000720229
138 Pt 15.463 10.5508 1.1476 -2.64287e-08 -8.49982e-09 0.000109342 -0.000719891
139 Pt 0 12.9856 1.1476 2.54931e-08 -2.52221e-08 0.000109305 -0.000719752
140 Pt 2.81146 12.9856 1.1476 1.44323e-08 -2.18975e-08 0.000109452 -0.000720201
141 Pt 5.62291 12.9856 1.1476 4.38392e-09 -2.43118e-08 0.000109493 -0.000720342
142 Pt 8.43437 12.9856 1.1476 -3.85823e-09 -2.44674e-08 0.000109495 -0.000720346
143 Pt 11.2458 12.9856 1.1476 -1.62153e-08 -2.20525e-08 0.000109443 -0.000720179
144 Pt 14.0573 12.9856 1.1476 -1.96312e-08 -1.85074e-08 0.00010938 -0.000719968
145 Pt 0 1.62319 3.4432 6.80124e-06 -4.72781e-06 0.0572364 0.0155417
146 Pt 2.81146 1.62319 3.4432 7.00238e-06 -1.32661e-07 0.0572952 0.0155489
147 Pt 5.62291 1.62319 3.4432 3.53347e-06 -7.39349e-07 0.0573219 0.0155526
148 Pt 8.43437 1.62319 3.4432 -3.44635e-06 -8.50796e-07 0.0573223 0.0155527
149 Pt 11.2458 1.62319 3.4432 -8.0905e-06 -1.20391e-06 0.0572895 0.0155482
150 Pt 14.0573 1.62319 3.4432 -4.01036e-06 2.92449e-06 0.0572683 0.0155451
151 Pt 1.40573 4.05799 3.4432 7.77463e-06 5.70946e-06 0.0572839 0.0155473
152 Pt 4.21718 4.05799 3.4432 6.80646e-06 4.42163e-06 0.0573239 0.0155527
153 Pt 7.02864 4.05799 3.4432 6.61958e-08 4.26135e-06 0.0573407 0.0155551
154 Pt 9.8401 4.05799 3.4432 -6.95067e-06 5.17431e-06 0.0573251 0.0155528
155 Pt 12.6516 4.05799 3.4432 -5.5358e-06 3.23771e-06 0.0572835 0.0155472
156 Pt 15.463 4.05799 3.4432 -3.95163e-06 -1.16104e-08 0.0572432 0.0155423
157 Pt 0 6.49278 3.4432 7.56742e-06 -2.13792e-06 0.0572551 0.0155441
158 Pt 2.81146 6.49278 3.4432 8.60266e-06 2.26535e-06 0.0573194 0.0155521
159 Pt 5.62291 6.49278 3.4432 4.36945e-06 1.39286e-06 0.0573516 0.0155566
160 Pt 8.43437 6.49278 3.4432 -4.28227e-06 1.28137e-06 0.057352 0.0155567
161 Pt 11.2458 6.49278 3.4432 -9.69113e-06 1.19359e-06 0.0573137 0.0155514
162 Pt 14.0573 6.49278 3.4432 -4.77558e-06 5.51837e-06 0.057287 0.0155475
163 Pt 1.40573 8.92757 3.4432 7.7045e-06 3.4e-07 0.0572928 0.0155486
164 Pt 4.21718 8.92757 3.4432 6.70603e-06 -2.80652e-06 0.0573352 0.0155544
165 Pt 7.02864 8.92757 3.4432 6.62062e-08 -3.94526e-06 0.0573533 0.0155569
166 Pt 9.8401 8.92757 3.4432 -6.85041e-06 -2.05367e-06 0.0573364 0.0155545
167 Pt 12.6516 8.92757 3.4432 -5.46474e-06 -2.13225e-06 0.0572924 0.0155485
168 Pt 15.463 8.92757 3.4432 -3.95254e-06 -4.4995e-06 0.057251 0.0155434
169 Pt 0 11.3624 3.4432 6.76829e-06 -9.1944e-06 0.0572322 0.015541
170 Pt 2.81146 11.3624 3.4432 6.90885e-06 -6.15284e-06 0.057293 0.0155485
171 Pt 5.62291 11.3624 3.4432 3.47233e-06 -8.4072e-06 0.0573218 0.0155525
172 Pt 8.43437 11.3624 3.4432 -3.38515e-06 -8.5187e-06 0.0573222 0.0155526
173 Pt 11.2458 11.3624 3.4432 -7.99698e-06 -7.22379e-06 0.0572873 0.0155478
174 Pt 14.0573 11.3624 3.4432 -3.9772e-06 -1.54178e-06 0.057264 0.0155445
175 Pt 1.40573 13.7972 3.4432 6.36735e-06 5.96058e-06 0.0572425 0.0155423
176 Pt 4.21718 13.7972 3.4432 5.30262e-06 3.11978e-06 0.0572785 0.0155471
177 Pt 7.02864 13.7972 3.4432 6.616e-08 2.17207e-06 0.0572934 0.0155493
178 Pt 9.8401 13.7972 3.4432 -5.44693e-06 3.87241e-06 0.0572797 0.0155473
179 Pt 12.6516 13.7972 3.4432 -4.12801e-06 3.48985e-06 0.0572421 0.0155422
180 Pt 15.463 13.7972 3.4432 -3.95105e-06 1.00631e-06 0.0572038 0.0155376
181 Pt 0 0 5.7387 0.000224467 -0.000631066 19.8489 -0.270446
182 Pt 2.81146 0 5.7387 0.00163489 -0.000632006 19.8594 -0.270512
183 Pt 5.62291 0 5.7387 0.000871573 -0.00063158 19.8712 -0.270592
184 Pt 8.43437 0 5.7387 -0.000909433 -0.000631692 19.8711 -0.270592
185 Pt 11.2458 0 5.7387 -0.00149828 -0.000631821 19.8595 -0.270513
186 Pt 14.0573 0 5.7387 -0.000390946 -0.000630366 19.8483 -0.270438
187 Pt 1.40573 2.43479 5.7387 0.000959877 0.00084812 19.8558 -0.270486
188 Pt 4.21718 2.43479 5.7387 0.00163587 0.00116407 19.8699 -0.27058
189 Pt 7.02864 2.43479 5.7387 -1.69364e-06 0.00133245 19.8774 -0.270631
190 Pt 9.8401 2.43479 5.7387 -0.00152329 0.00116448 19.8699 -0.27058
191 Pt 12.6516 2.43479 5.7387 -0.00180066 0.000846126 19.8553 -0.27048
192 Pt 15.463 2.43479 5.7387 0.000797525 0.000697626 19.8489 -0.270441
193 Pt 0 4.86959 5.7387 0.000448451 0.000665174 19.8565 -0.270494
194 Pt 2.81146 4.86959 5.7387 0.00211492 0.000936539 19.8702 -0.270582
195 Pt 5.62291 4.86959 5.7387 0.00112818 0.0012293 19.8852 -0.270685
196 Pt 8.43437 4.86959 5.7387 -0.00116607 0.00122919 19.8852 -0.270684
197 Pt 11.2458 4.86959 5.7387 -0.0019782 0.000936675 19.8703 -0.270583
198 Pt 14.0573 4.86959 5.7387 -0.000614982 0.000665799 19.856 -0.270487
199 Pt 1.40573 7.30438 5.7387 0.00136464 6.27441e-07 19.8654 -0.270552
200 Pt 4.21718 7.30438 5.7387 0.00207476 -2.60983e-07 19.8833 -0.270671
201 Pt 7.02864 7.30438 5.7387 -1.69408e-06 3.36782e-07 19.8927 -0.270736
202 Pt 9.8401 7.30438 5.7387 -0.00196211 1.45207e-07 19.8833 -0.270672
203 Pt 12.6516 7.30438 5.7387 -0.0022058 -1.35736e-06 19.8649 -0.270546
204 Pt 15.463 7.30438 5.7387 0.000797825 -4.85076e-07 19.8568 -0.270495
205 Pt 0 9.73917 5.7387 0.000448686 -0.000590857 19.8566 -0.270495
206 Pt 2.81146 9.73917 5.7387 0.00211545 -0.000863325 19.8703 -0.270583
207 Pt 5.62291 9.73917 5.7387 0.00112847 -0.00115435 19.8853 -0.270686
208 Pt 8.43437 9.73917 5.7387 -0.00116636 -0.00115447 19.8853 -0.270686
209 Pt 11.2458 9.73917 5.7387 -0.00197873 -0.000863236 19.8704 -0.270584
210 Pt 14.0573 9.73917 5.7387 -0.000615219 -0.000590047 19.8561 -0.270488
211 Pt 1.40573 12.174 5.7387 0.000960381 -0.000287861 19.8566 -0.270497
212 Pt 4.21718 12.174 5.7387 0.00163649 -0.000605396 19.8707 -0.27059
213 Pt 7.02864 12.174 5.7387 -1.69516e-06 -0.000772505 19.8782 -0.270642
214 Pt 9.8401 12.174 5.7387 -0.0015239 -0.00060498 19.8708 -0.270591
215 Pt 12.6516 12.174 5.7387 -0.00180121 -0.000289927 19.8561 -0.270491
216 Pt 15.463 12.174 5.7387 0.000797591 -0.00013977 19.8498 -0.270452
217 K 7.02864 7.30438 20.3387 1.31757e-07 -5.61731e-07 14.6545 1
218 F 7.02864 7.30438 21.7387 3.3453e-07 -6.59747e-08 -14.6545 -1
