ITEM: TIMESTEP
0
ITEM: NUMBER OF ATOMS
100
ITEM: BOX BOUNDS ff ff ff
0.0000000000000000e+00 1.0000000000000000e+01
0.0000000000000000e+00 1.0000000000000000e+01
0.0000000000000000e+00 1.0000000000000000e+01
ITEM: ATOMS id type x y z fx fy fz
1 1       3.1694638       6.2315207       8.3239673       3.8251990       4.6041343      -1.9444376
2 1       4.1207619       9.2410884       1.8161806       1.3223188       0.4045897       2.6000692
3 1       8.6212856       1.2379141       5.7689259      -3.0453827      -1.7111464       1.9195450
4 1       2.8148014       5.2405288       9.9330514       2.3555945       0.7614947      -0.9342565
5 1       6.4921224       0.1681481       0.1117282     -24.4295193      -2.9445537      -3.4639177
6 1       0.6788778       5.9795076       4.2260096      -0.8685411       3.1068596      -0.7954921
7 1       4.9390511       4.9204182       8.3911273       0.0040080      -1.6865089       2.6253835
8 1       3.7436886       8.9929017       1.0288099      -0.9036252      -3.7517192      -2.4990037
9 1       6.8038150       7.4204923       4.0496639       1.6873977      -0.7416615       0.2859023
10 1       0.3783644       4.6671345       4.9258244      -2.4809312       1.3311063       2.5003676
11 1       6.9770057       7.7920449       5.9442304       1.0279138       2.6493377       4.6551432
12 1       0.4559086       6.5323544       2.0528548       0.5243765      -2.7353626       1.0329440
13 1       2.3395068       5.5313627       0.0151762      -0.2030200      -0.7020423       0.8105932
14 1       6.1627082       0.1454900       0.0735099      24.7985594       2.5350322       3.2636285
15 1       2.4045884       8.8150670       1.0870586       0.0851507       0.0206735       0.1180533
16 1       3.6816799       6.8644267       8.0914252      -4.0301471       2.4509763      -0.3601332
17 1       0.2940355       4.9554077       8.4172755      -0.0495200       1.0004610      -5.9712265
18 1       3.8582595       9.3659389       0.2340874       0.1064021       0.3507422      -1.0202429
19 1       9.8312113       2.3749443       6.7024202      -0.4118976      -0.2012547      -0.6255482
20 1       6.4352415       9.1482561       2.5672736       0.0078329       0.0106316      -0.1240710
21 1       8.6642838       2.6974212       8.4376040       1.7102139      -2.4623808      -0.2620451
22 1       6.4704420       2.7537795       1.9956485      11.1367953       6.2322864      -2.4667025
23 1       9.5961786       8.4211891       4.1901857       0.1959217       1.8134506       1.6947391
24 1       5.8900820       6.8050826       7.6821213      -0.1960654       0.9465492      -1.3474584
25 1       4.2400254       2.4345431       0.9792365      -0.0810840      -0.2105521      -0.2508283
26 1       3.6081737       8.3278772       9.3798660      -1.7245752       1.4868736       2.6230025
27 1       7.2154015       1.5110119       5.2058641      -1.9287359      -0.7490337       0.3322338
28 1       3.3050545       1.0355293       7.2269716      -0.2576662       0.1330964      -0.8413213
29 1       2.6751345       6.0770709       7.9931166       1.7235966      -0.0581651       3.4645704
30 1       3.5590160       2.6250361       0.9058070      -1.0388013      -0.1185739      -0.3716790
31 1       9.2384168       6.4673365       1.1002956       0.3263329      -0.3997401      -1.7085304
32 1       3.1329087       6.5911791       3.0314983      -2.3643017       5.8456734      -1.4685555
33 1       8.3259079       6.2297713       3.7107784       6.5818413      23.2126873       3.2769407
34 1       0.0492966       4.5624152       9.5428723      -2.6473227      -0.9739984       4.8051578
35 1       4.0701081       8.6502701       5.9045662      -0.0169671       0.0265520       0.0015678
36 1       8.2048740       8.1975046       9.4488662      -0.2834222      -2.4915240      -2.9655586
37 1       7.6762551       5.0687868       4.3703653     -18.0533808     -37.2935314      -4.7255824
38 1       3.7603877       8.0659249       8.3993792      -4.3864596      -3.3566531     -11.3774419
39 1       6.2943936       2.1057656       7.6069206       0.3754742       0.6858802       0.6706308
40 1       7.0949434       2.6674345       5.5514250      -0.0512895       0.3411568       0.0588209
41 1       9.9152091       1.1974137       2.0654870      -0.2456401       0.5595646       0.8261977
42 1       0.0907629       4.1504146       8.3335306       2.4480474      -1.4319949       1.4384468
43 1       7.0189267       7.4305026       2.8739403       1.4811503      -0.5181904      -0.0476277
44 1       0.1011532       0.4454034       6.9972354      -0.0365480      -0.0276463      -0.1505288
45 1       5.1008425       7.8328059       6.0308893       1.4935158       1.0150978       1.4922308
46 1       6.0807362       5.8395184       5.0582992       2.4035762      -0.9552331      -0.1870203
47 1       6.8257406       0.4078764       3.7038636      -2.6338110       2.7903599       1.4119159
48 1       9.3959205       2.6979554       8.3696297      -2.4041882       0.2643587       0.1708629
49 1       1.4965077       6.6206450       9.8105412       0.0131443       1.7586272       0.0044227
50 1       9.9365992       6.2391185       7.6399146       1.1207544      -2.2904252      -3.1944074
51 1       8.3338637       8.2217966       6.6752005      -5.4225005       2.7561189      -9.5427364
52 1       3.5951175       6.4366985       9.0239588      -5.1722948      -2.9290158       3.6963784
53 1       0.8002677       4.3771753       2.5934051      -1.2464760      -0.3826135      -0.6194465
54 1       6.2126062       4.1684134       8.4759958      -1.9947089       1.5557938      -2.0691061
55 1       7.1369412       7.3126464       9.7254741       0.6347679       0.6749806       0.7832295
56 1       3.2975281       3.5869859       0.0078328       0.0436751      -0.0228700       0.1585371
57 1       8.7281207       8.0245216       7.2809123       3.5869724      -0.3413233       5.9589265
58 1       5.9285017       9.0772242       6.4504647      -1.4212845      -2.0500252      -1.7342534
59 1       4.2059399       6.4441775       6.3811374       0.0002444      -0.6379331       0.8219272
60 1       7.5112139       4.7783993       4.3475216      16.2636784      40.7972441      -0.7807892
61 1       9.8384330       7.7270286       2.8593988       0.4284059       0.3333342      -0.4957266
62 1       9.5168832       1.6544447       5.2936310       2.3977295       1.7189320      -2.2330644
63 1       6.9889484       0.3818813       6.9329964       1.1473544       1.4274233      -1.3788823
64 1       6.0935474       7.8561178       9.3454776      -0.2412781       0.3808321       0.4416535
65 1       8.8184437       0.5255628       8.4228865       0.4702000       2.6118677      -0.1240309
66 1       6.6359109       6.2233810       6.3460929      -0.0301895       0.0120838       0.0845280
67 1       2.8415365       8.6642227       8.1959369       7.9467533      -5.0244217       5.9360603
68 1       6.3947270       1.6547132       1.7731971       2.1199840      -5.0158837      -1.3316292
69 1       9.7593321       4.5124021       4.7857069       0.0426159      -0.0357681       0.0317358
70 1       3.3707181       5.2685676       2.0179387       1.1836940       0.2792134       2.2967896
71 1       5.9340013       4.0484378       7.6032302       1.4846506      -0.6484171       1.1790829
72 1       9.1608740       5.4306510       8.1305843       0.6603095       0.9466600      -0.3014428
73 1       8.1217026       5.7130056       3.6426569     -10.1658995     -21.2734306      -2.9111112
74 1       8.2331869       4.2863504       8.7166880      -0.2442507       0.1032972       0.2914668
75 1       9.3053557       9.4340269       1.3410772       0.0520935       0.2417149       0.1206769
76 1       9.8155482       6.6736984       8.9566586      -0.2471702       1.3282024       5.2489053
77 1       3.6337403       7.3913165       0.6266409      -0.3098741       3.4577836       0.0208684
78 1       2.4562381       0.1598027       0.5756046      -0.0195941      -0.1015238      -0.1037508
79 1       2.0842510       1.0391697       4.7548545       0.5309927      -0.6782666       0.5129804
80 1       7.6121914       4.0461717       4.8855371       0.6440370      -8.8479686       5.0384907
81 1       0.7768014       8.5238221       7.7896156       0.3519580       0.1267310      -0.1106347
82 1       1.0583135       3.4398998       4.9789549       2.1361273      -3.5475332       3.0829144
83 1       8.1525863       4.7028102       7.5811966      -0.6967707      -0.4414780      -0.9251904
84 1       4.5881008       5.5089905       9.8817573       1.6425726       0.4879537      -3.0488443
85 1       6.8026778       9.5339860       0.9410311       0.6688757       0.0510570       0.4218871
86 1       9.1009651       9.9705442       2.4013235       0.0189408      -0.5053093      -0.1542248
87 1       5.6547702       1.9141791       9.7862509      -0.3388798      -0.5060259      -1.7537899
88 1       5.7760989       2.4495279       2.1631786     -10.5580482      -2.9871331       0.2913729
89 1       2.1574793       8.4161117       3.3785222       0.0414755      -0.0344758       0.1044146
90 1       1.7945432       6.0738987       5.5132274       0.3854229       0.4617242       0.5212696
91 1       1.8084150       8.4043168       2.3561104       0.2644893      -1.8744889       2.0126397
92 1       6.0147394       2.6131725       2.8734127       0.6877514       0.7525391       6.0517459
93 1       9.3645204       1.5527755       8.8111651       0.0528377      -0.6569316      -0.0103702
94 1       2.2866448       4.4437017       5.2346099      -0.8686307      -0.0830261      -0.6841925
95 1       6.3881558       4.4433004       6.5408636      -0.5362274       0.0852999       0.9893917
96 1       1.1764446       4.4221103       1.0568384       0.3935699       0.0102771      -4.0350008
97 1       5.8840093       0.1934540       4.4095371       2.0802123      -0.4083435      -0.9077118
98 1       4.2738970       5.2601220       2.8812160       1.1071208      -1.9847920      -1.0158412
99 1       0.2558230       3.4099159       8.1699499      -1.8488770       0.6661948      -3.4038265
100 1       2.0453201       2.3955885       1.8845566      -0.0888327       1.2253781       0.5979703
