ITEM: TIMESTEP
0
ITEM: NUMBER OF ATOMS
100
ITEM: BOX BOUNDS pp pp pp
0.0000000000000000e+00 1.0000000000000000e+01
0.0000000000000000e+00 1.0000000000000000e+01
0.0000000000000000e+00 5.0000000000000000e+01
ITEM: ATOMS id type x y z fx fy fz
1 1       3.1694638       6.2315207       8.3239673       2.9059515       4.5550993      -2.2973493
2 1       4.1207619       9.2410884       1.8161806       1.5177872       0.6467324       2.8432085
3 1       8.6212856       1.2379141       5.7689259      -2.6753102      -1.9880406       2.1043459
4 1       2.8148014       5.2405288       9.9330514       1.8740299       0.9204181      -2.0010960
5 1       6.4921224       0.1681481       0.1117282     -23.6673890      -5.3876875      -0.7388319
6 1       0.6788778       5.9795076       4.2260096      -2.2811471       3.3495848      -2.2119307
7 1       4.9390511       4.9204182       8.3911273       0.2791024      -2.1587380       3.0580023
8 1       3.7436886       8.9929017       1.0288099       1.1665958      -4.3346345      -0.7181117
9 1       6.8038150       7.4204923       4.0496639       1.3237830      -0.1192236      -0.0480511
10 1       0.3783644       4.6671345       4.9258244      -3.5206939       2.0780844       0.4571639
11 1       6.9770057       7.7920449       5.9442304       0.8192460       1.0017941       3.4107282
12 1       0.4559086       6.5323544       2.0528548       3.1664381      -3.4335614       1.9500097
13 1       2.3395068       5.5313627       0.0151762       0.1207481      -0.8480984       0.9805113
14 1       6.1627082       0.1454900       0.0735099      23.9949638       3.6744088       1.9983325
15 1       2.4045884       8.8150670       1.0870586       0.0571717       0.0965807       0.0541664
16 1       3.6816799       6.8644267       8.0914252      -2.9199071       3.0398224       0.1134753
17 1       0.2940355       4.9554077       8.4172755      -1.8886333       4.4448932      -7.2277309
18 1       3.8582595       9.3659389       0.2340874       0.2776225       0.3175315      -0.9036061
19 1       9.8312113       2.3749443       6.7024202      -0.3919476      -0.4279848      -1.4784564
20 1       6.4352415       9.1482561       2.5672736       0.0742914       0.0539456      -0.1136800
21 1       8.6642838       2.6974212       8.4376040       6.0789663       0.1301876       1.0811696
22 1       6.4704420       2.7537795       1.9956485      10.5866858       5.6973905      -3.6890485
23 1       9.5961786       8.4211891       4.1901857       0.0684928       0.9190254       3.3235622
24 1       5.8900820       6.8050826       7.6821213      -0.3340619       1.2577103      -1.0809602
25 1       4.2400254       2.4345431       0.9792365       0.0342945      -0.3662225      -0.3135182
26 1       3.6081737       8.3278772       9.3798660      -2.2363956       1.1147079       2.7897195
27 1       7.2154015       1.5110119       5.2058641      -1.5758684      -0.8673603      -0.4783592
28 1       3.3050545       1.0355293       7.2269716      -0.2893212      -0.2593535      -1.2707826
29 1       2.6751345       6.0770709       7.9931166       2.8869447       0.0593612       3.7982446
30 1       3.5590160       2.6250361       0.9058070      -0.9324741      -0.3376778      -0.5107680
31 1       9.2384168       6.4673365       1.1002956      -0.6207959      -2.1047047      -1.3893651
32 1       3.1329087       6.5911791       3.0314983      -2.9264575       5.9653114      -3.1828409
33 1       8.3259079       6.2297713       3.7107784       7.7502919      20.3510849       6.2266041
34 1       0.0492966       4.5624152       9.5428723      -3.3245861       0.5483730       1.5377057
35 1       4.0701081       8.6502701       5.9045662      -0.0167496       0.0193911       0.0002630
36 1       8.2048740       8.1975046       9.4488662      -0.7058478      -2.3730894      -2.2231429
37 1       7.6762551       5.0687868       4.3703653     -19.2253386     -37.7431712      -5.3087889
38 1       3.7603877       8.0659249       8.3993792      -5.4682866      -3.8593737     -11.3589380
39 1       6.2943936       2.1057656       7.6069206       0.1114602       0.3485200       0.2204154
40 1       7.0949434       2.6674345       5.5514250      -0.0359020       0.3095451       0.0253950
41 1       9.9152091       1.1974137       2.0654870      -1.0095172       2.3587671       2.7402071
42 1       0.0907629       4.1504146       8.3335306       2.9879500      -1.9917920       1.5322316
43 1       7.0189267       7.4305026       2.8739403       1.2296543      -0.2156329      -0.7105844
44 1       0.1011532       0.4454034       6.9972354      -0.0420694       0.0889067      -0.3923311
45 1       5.1008425       7.8328059       6.0308893       0.9787601       0.8249901       1.1385209
46 1       6.0807362       5.8395184       5.0582992       1.9204870      -0.1397825      -0.4170343
47 1       6.8257406       0.4078764       3.7038636      -2.7699724       3.2964797       3.5520873
48 1       9.3959205       2.6979554       8.3696297      -3.3121301      -0.5699505       0.1369375
49 1       1.4965077       6.6206450       9.8105412      -0.9673286       1.2563848      -1.3587037
50 1       9.9365992       6.2391185       7.6399146       1.6280889      -5.9021230       1.1937259
51 1       8.3338637       8.2217966       6.6752005      -5.8909142       2.7883716      -8.2896760
52 1       3.5951175       6.4366985       9.0239588      -4.5877128      -2.9018148       3.8010504
53 1       0.8002677       4.3771753       2.5934051      -2.3896141       1.1527092      -1.2492750
54 1       6.2126062       4.1684134       8.4759958      -2.1666905       1.3426257      -2.7285140
55 1       7.1369412       7.3126464       9.7254741       0.8484335       0.6272749       0.5799490
56 1       3.2975281       3.5869859       0.0078328       0.0648329      -0.0223897       0.1930632
57 1       8.7281207       8.0245216       7.2809123       3.4374268      -0.4275749       6.4385527
58 1       5.9285017       9.0772242       6.4504647       0.3408040      -0.6103104      -0.7835407
59 1       4.2059399       6.4441775       6.3811374      -0.0908481      -0.8390998       0.5009598
60 1       7.5112139       4.7783993       4.3475216      17.4719775      41.6644579       0.5370651
61 1       9.8384330       7.7270286       2.8593988       0.1236632      -0.0184437       0.5121555
62 1       9.5168832       1.6544447       5.2936310       2.0758830      -0.4827105      -1.0113140
63 1       6.9889484       0.3818813       6.9329964      -0.3756445      -1.3057036      -1.8718796
64 1       6.0935474       7.8561178       9.3454776      -0.2160010       0.4376773       0.3998231
65 1       8.8184437       0.5255628       8.4228865      -0.0446336       1.1516879      -1.1659352
66 1       6.6359109       6.2233810       6.3460929      -0.0428640      -0.0082102       0.0535929
67 1       2.8415365       8.6642227       8.1959369       9.0301988      -3.2407048       5.8947730
68 1       6.3947270       1.6547132       1.7731971       1.9049615      -5.5590551      -1.8939954
69 1       9.7593321       4.5124021       4.7857069       0.2455509       0.0078374       0.0456992
70 1       3.3707181       5.2685676       2.0179387       1.0691126       0.2444185       2.5584985
71 1       5.9340013       4.0484378       7.6032302       1.3452135      -0.4230868       1.7076214
72 1       9.1608740       5.4306510       8.1305843      -0.2733847       1.3456501      -0.9235394
73 1       8.1217026       5.7130056       3.6426569      -8.8572122     -22.3189998      -1.1149579
74 1       8.2331869       4.2863504       8.7166880       0.2959343       0.1885575       0.5354752
75 1       9.3053557       9.4340269       1.3410772      -0.1880125       0.1913936       0.1447965
76 1       9.8155482       6.6736984       8.9566586       1.1757298      -1.1237391       5.5317161
77 1       3.6337403       7.3913165       0.6266409      -0.6105622       3.6204084      -0.5474071
78 1       2.4562381       0.1598027       0.5756046      -0.5033972       1.9100257      -0.3220633
79 1       2.0842510       1.0391697       4.7548545       0.7286040      -1.6561834      -0.5386767
80 1       7.6121914       4.0461717       4.8855371       1.1827213      -7.1668627       5.1535313
81 1       0.7768014       8.5238221       7.7896156      -0.1133193      -0.5213325      -0.2483990
82 1       1.0583135       3.4398998       4.9789549       1.6980751      -2.5167426       1.5969744
83 1       8.1525863       4.7028102       7.5811966      -0.0043694      -0.1933280      -0.1030010
84 1       4.5881008       5.5089905       9.8817573       1.6527564       0.6873500      -2.8966684
85 1       6.8026778       9.5339860       0.9410311      -0.4827186       2.5738747      -0.9452921
86 1       9.1009651       9.9705442       2.4013235       0.7068820      -0.2392071      -0.8772762
87 1       5.6547702       1.9141791       9.7862509      -0.4251081      -0.2286565      -0.2739793
88 1       5.7760989       2.4495279       2.1631786     -10.1754383      -3.8127943      -0.9998057
89 1       2.1574793       8.4161117       3.3785222       0.0542132      -0.0287008       0.1174896
90 1       1.7945432       6.0738987       5.5132274       0.3156988       0.4438756       0.3526359
91 1       1.8084150       8.4043168       2.3561104       2.4018527      -2.3773304       3.3074109
92 1       6.0147394       2.6131725       2.8734127       0.6303357       0.5300630       5.4658511
93 1       9.3645204       1.5527755       8.8111651       0.1348320      -0.4509438       0.0645955
94 1       2.2866448       4.4437017       5.2346099      -0.7445857      -0.1083866      -0.4578660
95 1       6.3881558       4.4433004       6.5408636      -0.4681001       0.3146537       0.4461143
96 1       1.1764446       4.4221103       1.0568384      -0.3787961       1.4381485      -4.3562183
97 1       5.8840093       0.1934540       4.4095371       2.0132863      -0.2383288      -2.1834299
98 1       4.2738970       5.2601220       2.8812160       1.1896477      -0.6317331      -2.5459756
99 1       0.2558230       3.4099159       8.1699499      -4.1836100       1.7394401      -3.4116241
100 1       2.0453201       2.3955885       1.8845566       0.3732329       1.7550429       0.9581918
