LAMMPS (23 Jun 2022 - Update 4)
OMP_NUM_THREADS environment is not set. Defaulting to 1 thread. (src/comm.cpp:98)
  using 1 OpenMP thread(s) per MPI task

# ---------------------- INITIALIZAITION ------------------
units           metal
boundary        p p p
atom_style      full

# --------------------- ATOM DEFINITION ------------------
read_data       system.data
Reading data file ...
  orthogonal box = (0 0 0) to (10 10 50)
  1 by 1 by 1 MPI processor grid
  reading atoms ...
  100 atoms
Finding 1-2 1-3 1-4 neighbors ...
  special bond factors lj:    0        0        0
  special bond factors coul:  0        0        0
     0 = max # of 1-2 neighbors
     0 = max # of 1-3 neighbors
     0 = max # of 1-4 neighbors
     1 = max # of special neighbors
  special bonds CPU = 0.000 seconds
  read_data CPU = 0.001 seconds

mass            1 1.0079


# --------------------- FORCE FIELDS ---------------------
kspace_style    pppm 1.0e-4
kspace_modify   gewald 0.5 mesh 16 16 16

pair_style      coul/long 4.0
pair_coeff      * *

# --------------------- MD SETTINGS ----------------------
neighbor        2.0 bin
neigh_modify    every 1

# print info to screen/log file
thermo          1
thermo_style    custom step pe ke etotal
thermo_modify   format float %15.7f
fix             thermo_print all print 2 "$(step) $(pe) $(ke) $(etotal)" append thermo.out screen no title "# step pe ke etotal"

# save trajectory to file
dump            traj all custom 1 dump.lammpstrj id type x y z fx fy fz
dump_modify     traj sort id format float %15.7f

# --------------------- RUN ------------------------------
run             0
WARNING: No fixes with time integration, atoms won't move (src/verlet.cpp:60)
PPPM initialization ...
  using 12-bit tables for long-range coulomb (src/kspace.cpp:342)
  G vector (1/distance) = 0.5
  grid = 16 16 16
  stencil order = 5
  estimated absolute RMS force accuracy = 0.49872308
  estimated relative force accuracy = 0.034634401
  using double precision KISS FFT
  3d grid and FFT values/proc = 13125 4096
Generated 0 of 0 mixed pair_coeff terms from geometric mixing rule
Neighbor list info ...
  update every 1 steps, delay 10 steps, check yes
  max neighbors/atom: 2000, page size: 100000
  master list distance cutoff = 6
  ghost atom cutoff = 6
  binsize = 3, bins = 4 4 17
  1 neighbor lists, perpetual/occasional/extra = 1 0 0
  (1) pair coul/long, perpetual
      attributes: half, newton on
      pair build: half/bin/newton
      stencil: half/bin/3d
      bin: standard
Per MPI rank memory allocation (min/avg/max) = 8.549 | 8.549 | 8.549 Mbytes
   Step         PotEng         KinEng         TotEng
         0      -92.8728554       0.0000000     -92.8728554
Loop time of 1.074e-06 on 1 procs for 0 steps with 100 atoms

93.1% CPU use with 1 MPI tasks x 1 OpenMP threads

MPI task timing breakdown:
Section |  min time  |  avg time  |  max time  |%varavg| %total
---------------------------------------------------------------
Pair    | 0          | 0          | 0          |   0.0 |  0.00
Bond    | 0          | 0          | 0          |   0.0 |  0.00
Kspace  | 0          | 0          | 0          |   0.0 |  0.00
Neigh   | 0          | 0          | 0          |   0.0 |  0.00
Comm    | 0          | 0          | 0          |   0.0 |  0.00
Output  | 0          | 0          | 0          |   0.0 |  0.00
Modify  | 0          | 0          | 0          |   0.0 |  0.00
Other   |            | 1.074e-06  |            |       |100.00

Nlocal:            100 ave         100 max         100 min
Histogram: 1 0 0 0 0 0 0 0 0 0
Nghost:            649 ave         649 max         649 min
Histogram: 1 0 0 0 0 0 0 0 0 0
Neighs:           3291 ave        3291 max        3291 min
Histogram: 1 0 0 0 0 0 0 0 0 0

Total # of neighbors = 3291
Ave neighs/atom = 32.91
Ave special neighs/atom = 0
Neighbor list builds = 0
Dangerous builds = 0
Total wall time: 0:00:00
